LAMMPS data file via write_data, version 19 Nov 2024, timestep = 0, units = lj

25781 atoms
9 atom types

0 512 xlo xhi
8 24 ylo yhi
8 24 zlo zhi

Masses

1 0.2
2 0.2
3 0.1
4 0.1
5 0.35
6 0.1
7 1
8 1
9 1

Pair Coeffs # lj/cut/bump

1 5 1.60362
2 5 1.60362
3 5 0.890899
4 5 0.890899
5 0.05 1.95998
6 5 0.890899
7 20 1.60362
8 20 1.60362
9 0.02 0.890899

Atoms # atomic

1 5 36.495784301757794 23.02 21.02 1 0 0
2 5 32.495784301757794 21.02 23.02 1 0 0
3 8 108.5801348876953 11.02 11.02 0 0 0
4 7 107.5801348876953 11.02 11.02 0 0 0
5 8 106.5801348876953 11.02 11.02 0 0 0
6 7 105.5801348876953 11.02 11.02 0 0 0
7 8 104.5801348876953 11.02 11.02 0 0 0
8 7 103.5801348876953 11.02 11.02 0 0 0
9 8 102.5801348876953 11.02 11.02 0 0 0
10 7 101.5801348876953 11.02 11.02 0 0 0
11 8 100.5801348876953 11.02 11.02 0 0 0
12 7 99.5801348876953 11.02 11.02 0 0 0
13 8 98.5801348876953 11.02 11.02 0 0 0
14 7 97.5801348876953 11.02 11.02 0 0 0
15 8 88.5801348876953 11.02 11.02 0 0 0
16 7 87.5801348876953 11.02 11.02 0 0 0
17 8 86.5801348876953 11.02 11.02 0 0 0
18 7 85.5801348876953 11.02 11.02 0 0 0
19 5 29.495784301757794 21.02 23.02 1 0 0
20 5 57.495784301757794 21.02 23.02 1 0 0
21 8 84.5801348876953 11.02 11.02 0 0 0
22 7 83.5801348876953 11.02 11.02 0 0 0
23 8 82.5801348876953 11.02 11.02 0 0 0
24 7 81.5801348876953 11.02 11.02 0 0 0
25 8 80.5801348876953 11.02 11.02 0 0 0
26 7 79.5801348876953 11.02 11.02 0 0 0
27 5 58.495784301757794 21.02 23.02 1 0 0
28 5 53.580134887695294 9.02 11.02 1 0 0
29 6 96.5801348876953 10.52 11.52 0 0 0
30 6 96.5801348876953 11.52 11.52 0 0 0
31 6 96.5801348876953 11.52 10.52 0 0 0
32 6 96.5801348876953 10.52 10.52 0 0 0
33 6 95.5801348876953 10.52 11.52 0 0 0
34 6 95.5801348876953 11.52 11.52 0 0 0
35 6 95.5801348876953 11.52 10.52 0 0 0
36 6 95.5801348876953 10.52 10.52 0 0 0
37 5 57.495784301757794 23.02 21.02 1 0 0
38 1 41.495784301757794 23.02 23.02 1 0 0
39 4 96.5801348876953 11.02 11.52 0 0 0
40 3 96.5801348876953 11.52 11.02 0 0 0
41 4 96.5801348876953 11.02 10.52 0 0 0
42 3 96.5801348876953 10.52 11.02 0 0 0
43 4 95.5801348876953 11.02 11.52 0 0 0
44 3 95.5801348876953 11.52 11.02 0 0 0
45 4 95.5801348876953 11.02 10.52 0 0 0
46 3 95.5801348876953 10.52 11.02 0 0 0
47 2 96.5801348876953 11.02 11.02 0 0 0
48 1 95.5801348876953 11.02 11.02 0 0 0
49 6 94.5801348876953 10.52 11.52 0 0 0
50 6 94.5801348876953 11.52 11.52 0 0 0
51 6 94.5801348876953 11.52 10.52 0 0 0
52 6 94.5801348876953 10.52 10.52 0 0 0
53 6 93.5801348876953 10.52 11.52 0 0 0
54 6 93.5801348876953 11.52 11.52 0 0 0
55 5 83.5801348876953 9.02 9.02 0 0 0
56 2 42.495784301757794 23.02 23.02 1 0 0
57 6 93.5801348876953 11.52 10.52 0 0 0
58 6 93.5801348876953 10.52 10.52 0 0 0
59 4 94.5801348876953 11.02 11.52 0 0 0
60 3 94.5801348876953 11.52 11.02 0 0 0
61 4 94.5801348876953 11.02 10.52 0 0 0
62 3 94.5801348876953 10.52 11.02 0 0 0
63 4 93.5801348876953 11.02 11.52 0 0 0
64 3 93.5801348876953 11.52 11.02 0 0 0
65 4 93.5801348876953 11.02 10.52 0 0 0
66 3 93.5801348876953 10.52 11.02 0 0 0
67 2 94.5801348876953 11.02 11.02 0 0 0
68 1 93.5801348876953 11.02 11.02 0 0 0
69 6 92.5801348876953 10.52 11.52 0 0 0
70 6 92.5801348876953 11.52 11.52 0 0 0
71 6 92.5801348876953 11.52 10.52 0 0 0
72 6 92.5801348876953 10.52 10.52 0 0 0
73 3 41.495784301757794 22.52 23.02 1 0 0
74 6 91.5801348876953 10.52 11.52 0 0 0
75 6 91.5801348876953 11.52 11.52 0 0 0
76 6 91.5801348876953 11.52 10.52 0 0 0
77 6 91.5801348876953 10.52 10.52 0 0 0
78 4 92.5801348876953 11.02 11.52 0 0 0
79 3 92.5801348876953 11.52 11.02 0 0 0
80 4 92.5801348876953 11.02 10.52 0 0 0
81 3 92.5801348876953 10.52 11.02 0 0 0
82 4 91.5801348876953 11.02 11.52 0 0 0
83 3 91.5801348876953 11.52 11.02 0 0 0
84 4 91.5801348876953 11.02 10.52 0 0 0
85 3 91.5801348876953 10.52 11.02 0 0 0
86 2 92.5801348876953 11.02 11.02 0 0 0
87 1 91.5801348876953 11.02 11.02 0 0 0
88 6 90.5801348876953 10.52 11.52 0 0 0
89 6 90.5801348876953 11.52 11.52 0 0 0
90 6 90.5801348876953 11.52 10.52 0 0 0
91 6 90.5801348876953 10.52 10.52 0 0 0
92 6 89.5801348876953 10.52 11.52 0 0 0
93 6 89.5801348876953 11.52 11.52 0 0 0
94 6 89.5801348876953 11.52 10.52 0 0 0
95 6 89.5801348876953 10.52 10.52 0 0 0
96 4 90.5801348876953 11.02 11.52 0 0 0
97 3 90.5801348876953 11.52 11.02 0 0 0
98 4 41.495784301757794 23.02 22.52 1 0 0
99 3 41.495784301757794 23.52 23.02 1 0 0
100 4 90.5801348876953 11.02 10.52 0 0 0
101 3 90.5801348876953 10.52 11.02 0 0 0
102 4 89.5801348876953 11.02 11.52 0 0 0
103 3 89.5801348876953 11.52 11.02 0 0 0
104 4 89.5801348876953 11.02 10.52 0 0 0
105 3 89.5801348876953 10.52 11.02 0 0 0
106 2 90.5801348876953 11.02 11.02 0 0 0
107 1 89.5801348876953 11.02 11.02 0 0 0
108 4 41.495784301757794 23.02 23.52 1 0 0
109 5 101.5801348876953 11.02 9.02 0 0 0
110 3 42.495784301757794 22.52 23.02 1 0 0
111 4 42.495784301757794 23.02 22.52 1 0 0
112 3 42.495784301757794 23.52 23.02 1 0 0
113 4 42.495784301757794 23.02 23.52 1 0 0
114 6 41.495784301757794 22.52 22.52 1 0 0
115 5 107.5801348876953 11.02 9.02 0 0 0
116 6 41.495784301757794 23.52 22.52 1 0 0
117 6 41.495784301757794 23.52 23.52 1 0 0
118 6 41.495784301757794 22.52 23.52 1 0 0
119 6 42.495784301757794 22.52 22.52 1 0 0
120 6 42.495784301757794 23.52 22.52 1 0 0
121 6 42.495784301757794 23.52 23.52 1 0 0
122 5 80.5801348876953 9.02 11.02 0 0 0
123 6 42.495784301757794 22.52 23.52 1 0 0
124 1 43.495784301757794 23.02 23.02 1 0 0
125 2 44.495784301757794 23.02 23.02 1 0 0
126 3 43.495784301757794 22.52 23.02 1 0 0
127 4 43.495784301757794 23.02 22.52 1 0 0
128 3 43.495784301757794 23.52 23.02 1 0 0
129 4 43.495784301757794 23.02 23.52 1 0 0
130 3 44.495784301757794 22.52 23.02 1 0 0
131 5 50.580134887695294 9.02 11.02 1 0 0
132 4 44.495784301757794 23.02 22.52 1 0 0
133 3 44.495784301757794 23.52 23.02 1 0 0
134 4 44.495784301757794 23.02 23.52 1 0 0
135 6 43.495784301757794 22.52 22.52 1 0 0
136 6 43.495784301757794 23.52 22.52 1 0 0
137 6 43.495784301757794 23.52 23.52 1 0 0
138 6 43.495784301757794 22.52 23.52 1 0 0
139 6 44.495784301757794 22.52 22.52 1 0 0
140 5 102.5801348876953 9.02 9.02 0 0 0
141 6 44.495784301757794 23.52 22.52 1 0 0
142 6 44.495784301757794 23.52 23.52 1 0 0
143 6 44.495784301757794 22.52 23.52 1 0 0
144 1 45.495784301757794 23.02 23.02 1 0 0
145 5 83.5801348876953 9.02 11.02 0 0 0
146 2 46.495784301757794 23.02 23.02 1 0 0
147 5 85.5801348876953 9.02 11.02 0 0 0
148 3 45.495784301757794 22.52 23.02 1 0 0
149 4 45.495784301757794 23.02 22.52 1 0 0
150 3 45.495784301757794 23.52 23.02 1 0 0
151 4 45.495784301757794 23.02 23.52 1 0 0
152 3 46.495784301757794 22.52 23.02 1 0 0
153 8 140.5801348876953 11.02 11.02 0 0 0
154 7 139.5801348876953 11.02 11.02 0 0 0
155 8 138.5801348876953 11.02 11.02 0 0 0
156 7 137.5801348876953 11.02 11.02 0 0 0
157 8 136.5801348876953 11.02 11.02 0 0 0
158 7 135.5801348876953 11.02 11.02 0 0 0
159 8 134.5801348876953 11.02 11.02 0 0 0
160 7 133.5801348876953 11.02 11.02 0 0 0
161 8 132.5801348876953 11.02 11.02 0 0 0
162 7 131.5801348876953 11.02 11.02 0 0 0
163 8 130.5801348876953 11.02 11.02 0 0 0
164 7 129.5801348876953 11.02 11.02 0 0 0
165 8 120.5801348876953 11.02 11.02 0 0 0
166 7 119.5801348876953 11.02 11.02 0 0 0
167 8 118.5801348876953 11.02 11.02 0 0 0
168 7 117.5801348876953 11.02 11.02 0 0 0
169 4 46.495784301757794 23.02 22.52 1 0 0
170 3 46.495784301757794 23.52 23.02 1 0 0
171 8 116.5801348876953 11.02 11.02 0 0 0
172 7 115.5801348876953 11.02 11.02 0 0 0
173 8 114.5801348876953 11.02 11.02 0 0 0
174 7 113.5801348876953 11.02 11.02 0 0 0
175 8 112.5801348876953 11.02 11.02 0 0 0
176 7 111.5801348876953 11.02 11.02 0 0 0
177 8 110.5801348876953 11.02 11.02 0 0 0
178 7 109.5801348876953 11.02 11.02 0 0 0
179 6 128.5801348876953 10.52 11.52 0 0 0
180 6 128.5801348876953 11.52 11.52 0 0 0
181 6 128.5801348876953 11.52 10.52 0 0 0
182 6 128.5801348876953 10.52 10.52 0 0 0
183 6 127.5801348876953 10.52 11.52 0 0 0
184 6 127.5801348876953 11.52 11.52 0 0 0
185 6 127.5801348876953 11.52 10.52 0 0 0
186 6 127.5801348876953 10.52 10.52 0 0 0
187 4 46.495784301757794 23.02 23.52 1 0 0
188 6 45.495784301757794 22.52 22.52 1 0 0
189 4 128.5801348876953 11.02 11.52 0 0 0
190 3 128.5801348876953 11.52 11.02 0 0 0
191 4 128.5801348876953 11.02 10.52 0 0 0
192 3 128.5801348876953 10.52 11.02 0 0 0
193 4 127.5801348876953 11.02 11.52 0 0 0
194 3 127.5801348876953 11.52 11.02 0 0 0
195 4 127.5801348876953 11.02 10.52 0 0 0
196 3 127.5801348876953 10.52 11.02 0 0 0
197 2 128.5801348876953 11.02 11.02 0 0 0
198 1 127.5801348876953 11.02 11.02 0 0 0
199 6 126.5801348876953 10.52 11.52 0 0 0
200 6 126.5801348876953 11.52 11.52 0 0 0
201 6 126.5801348876953 11.52 10.52 0 0 0
202 6 126.5801348876953 10.52 10.52 0 0 0
203 6 125.5801348876953 10.52 11.52 0 0 0
204 6 125.5801348876953 11.52 11.52 0 0 0
205 6 45.495784301757794 23.52 22.52 1 0 0
206 5 116.5801348876953 9.02 9.02 0 0 0
207 6 125.5801348876953 11.52 10.52 0 0 0
208 6 125.5801348876953 10.52 10.52 0 0 0
209 4 126.5801348876953 11.02 11.52 0 0 0
210 3 126.5801348876953 11.52 11.02 0 0 0
211 4 126.5801348876953 11.02 10.52 0 0 0
212 3 126.5801348876953 10.52 11.02 0 0 0
213 4 125.5801348876953 11.02 11.52 0 0 0
214 3 125.5801348876953 11.52 11.02 0 0 0
215 4 125.5801348876953 11.02 10.52 0 0 0
216 3 125.5801348876953 10.52 11.02 0 0 0
217 2 126.5801348876953 11.02 11.02 0 0 0
218 1 125.5801348876953 11.02 11.02 0 0 0
219 6 124.5801348876953 10.52 11.52 0 0 0
220 6 124.5801348876953 11.52 11.52 0 0 0
221 6 124.5801348876953 11.52 10.52 0 0 0
222 6 124.5801348876953 10.52 10.52 0 0 0
223 6 45.495784301757794 23.52 23.52 1 0 0
224 6 123.5801348876953 10.52 11.52 0 0 0
225 6 123.5801348876953 11.52 11.52 0 0 0
226 6 123.5801348876953 11.52 10.52 0 0 0
227 6 123.5801348876953 10.52 10.52 0 0 0
228 4 124.5801348876953 11.02 11.52 0 0 0
229 3 124.5801348876953 11.52 11.02 0 0 0
230 4 124.5801348876953 11.02 10.52 0 0 0
231 3 124.5801348876953 10.52 11.02 0 0 0
232 4 123.5801348876953 11.02 11.52 0 0 0
233 3 123.5801348876953 11.52 11.02 0 0 0
234 4 123.5801348876953 11.02 10.52 0 0 0
235 3 123.5801348876953 10.52 11.02 0 0 0
236 2 124.5801348876953 11.02 11.02 0 0 0
237 1 123.5801348876953 11.02 11.02 0 0 0
238 6 122.5801348876953 10.52 11.52 0 0 0
239 6 122.5801348876953 11.52 11.52 0 0 0
240 6 122.5801348876953 11.52 10.52 0 0 0
241 6 122.5801348876953 10.52 10.52 0 0 0
242 6 121.5801348876953 10.52 11.52 0 0 0
243 6 121.5801348876953 11.52 11.52 0 0 0
244 6 121.5801348876953 11.52 10.52 0 0 0
245 6 121.5801348876953 10.52 10.52 0 0 0
246 4 122.5801348876953 11.02 11.52 0 0 0
247 3 122.5801348876953 11.52 11.02 0 0 0
248 6 45.495784301757794 22.52 23.52 1 0 0
249 6 46.495784301757794 22.52 22.52 1 0 0
250 4 122.5801348876953 11.02 10.52 0 0 0
251 3 122.5801348876953 10.52 11.02 0 0 0
252 4 121.5801348876953 11.02 11.52 0 0 0
253 3 121.5801348876953 11.52 11.02 0 0 0
254 4 121.5801348876953 11.02 10.52 0 0 0
255 3 121.5801348876953 10.52 11.02 0 0 0
256 2 122.5801348876953 11.02 11.02 0 0 0
257 1 121.5801348876953 11.02 11.02 0 0 0
258 6 46.495784301757794 23.52 22.52 1 0 0
259 6 46.495784301757794 23.52 23.52 1 0 0
260 6 46.495784301757794 22.52 23.52 1 0 0
261 1 47.495784301757794 23.02 23.02 1 0 0
262 2 48.495784301757794 23.02 23.02 1 0 0
263 3 47.495784301757794 22.52 23.02 1 0 0
264 4 47.495784301757794 23.02 22.52 1 0 0
265 5 139.5801348876953 11.02 9.02 0 0 0
266 3 47.495784301757794 23.52 23.02 1 0 0
267 4 47.495784301757794 23.02 23.52 1 0 0
268 3 48.495784301757794 22.52 23.02 1 0 0
269 4 48.495784301757794 23.02 22.52 1 0 0
270 3 48.495784301757794 23.52 23.02 1 0 0
271 4 48.495784301757794 23.02 23.52 1 0 0
272 6 47.495784301757794 22.52 22.52 1 0 0
273 6 47.495784301757794 23.52 22.52 1 0 0
274 6 47.495784301757794 23.52 23.52 1 0 0
275 6 47.495784301757794 22.52 23.52 1 0 0
276 5 114.5801348876953 11.02 9.02 0 0 0
277 6 48.495784301757794 22.52 22.52 1 0 0
278 6 48.495784301757794 23.52 22.52 1 0 0
279 6 48.495784301757794 23.52 23.52 1 0 0
280 6 48.495784301757794 22.52 23.52 1 0 0
281 7 29.495784301757794 23.02 23.02 1 0 0
282 8 30.495784301757794 23.02 23.02 1 0 0
283 7 31.495784301757794 23.02 23.02 1 0 0
284 8 32.495784301757794 23.02 23.02 1 0 0
285 7 33.495784301757794 23.02 23.02 1 0 0
286 5 138.5801348876953 9.02 9.02 0 0 0
287 8 34.495784301757794 23.02 23.02 1 0 0
288 5 136.5801348876953 9.02 9.02 0 0 0
289 7 35.495784301757794 23.02 23.02 1 0 0
290 8 36.495784301757794 23.02 23.02 1 0 0
291 7 37.495784301757794 23.02 23.02 1 0 0
292 8 38.495784301757794 23.02 23.02 1 0 0
293 7 39.495784301757794 23.02 23.02 1 0 0
294 8 40.495784301757794 23.02 23.02 1 0 0
295 7 49.495784301757794 23.02 23.02 1 0 0
296 8 50.495784301757794 23.02 23.02 1 0 0
297 7 51.495784301757794 23.02 23.02 1 0 0
298 8 52.495784301757794 23.02 23.02 1 0 0
299 7 53.495784301757794 23.02 23.02 1 0 0
300 5 134.5801348876953 9.02 11.02 0 0 0
301 8 54.495784301757794 23.02 23.02 1 0 0
302 7 55.495784301757794 23.02 23.02 1 0 0
303 8 172.5801348876953 11.02 11.02 0 0 0
304 7 171.5801348876953 11.02 11.02 0 0 0
305 8 170.5801348876953 11.02 11.02 0 0 0
306 7 169.5801348876953 11.02 11.02 0 0 0
307 8 168.5801348876953 11.02 11.02 0 0 0
308 7 167.5801348876953 11.02 11.02 0 0 0
309 8 166.5801348876953 11.02 11.02 0 0 0
310 7 165.5801348876953 11.02 11.02 0 0 0
311 8 164.5801348876953 11.02 11.02 0 0 0
312 7 163.5801348876953 11.02 11.02 0 0 0
313 8 162.5801348876953 11.02 11.02 0 0 0
314 7 161.5801348876953 11.02 11.02 0 0 0
315 8 152.5801348876953 11.02 11.02 0 0 0
316 7 151.5801348876953 11.02 11.02 0 0 0
317 8 150.5801348876953 11.02 11.02 0 0 0
318 7 149.5801348876953 11.02 11.02 0 0 0
319 8 56.495784301757794 23.02 23.02 1 0 0
320 5 144.5801348876953 9.02 9.02 0 0 0
321 8 148.5801348876953 11.02 11.02 0 0 0
322 7 147.5801348876953 11.02 11.02 0 0 0
323 8 146.5801348876953 11.02 11.02 0 0 0
324 7 145.5801348876953 11.02 11.02 0 0 0
325 8 144.5801348876953 11.02 11.02 0 0 0
326 7 143.5801348876953 11.02 11.02 0 0 0
327 8 142.5801348876953 11.02 11.02 0 0 0
328 7 141.5801348876953 11.02 11.02 0 0 0
329 6 160.5801348876953 10.52 11.52 0 0 0
330 6 160.5801348876953 11.52 11.52 0 0 0
331 6 160.5801348876953 11.52 10.52 0 0 0
332 6 160.5801348876953 10.52 10.52 0 0 0
333 6 159.5801348876953 10.52 11.52 0 0 0
334 6 159.5801348876953 11.52 11.52 0 0 0
335 6 159.5801348876953 11.52 10.52 0 0 0
336 6 159.5801348876953 10.52 10.52 0 0 0
337 7 57.495784301757794 23.02 23.02 1 0 0
338 8 58.495784301757794 23.02 23.02 1 0 0
339 4 160.5801348876953 11.02 11.52 0 0 0
340 3 160.5801348876953 11.52 11.02 0 0 0
341 4 160.5801348876953 11.02 10.52 0 0 0
342 3 160.5801348876953 10.52 11.02 0 0 0
343 4 159.5801348876953 11.02 11.52 0 0 0
344 3 159.5801348876953 11.52 11.02 0 0 0
345 4 159.5801348876953 11.02 10.52 0 0 0
346 3 159.5801348876953 10.52 11.02 0 0 0
347 2 160.5801348876953 11.02 11.02 0 0 0
348 1 159.5801348876953 11.02 11.02 0 0 0
349 6 158.5801348876953 10.52 11.52 0 0 0
350 6 158.5801348876953 11.52 11.52 0 0 0
351 6 158.5801348876953 11.52 10.52 0 0 0
352 6 158.5801348876953 10.52 10.52 0 0 0
353 6 157.5801348876953 10.52 11.52 0 0 0
354 6 157.5801348876953 11.52 11.52 0 0 0
355 5 147.5801348876953 9.02 9.02 0 0 0
356 7 59.495784301757794 23.02 23.02 1 0 0
357 6 157.5801348876953 11.52 10.52 0 0 0
358 6 157.5801348876953 10.52 10.52 0 0 0
359 4 158.5801348876953 11.02 11.52 0 0 0
360 3 158.5801348876953 11.52 11.02 0 0 0
361 4 158.5801348876953 11.02 10.52 0 0 0
362 3 158.5801348876953 10.52 11.02 0 0 0
363 4 157.5801348876953 11.02 11.52 0 0 0
364 3 157.5801348876953 11.52 11.02 0 0 0
365 4 157.5801348876953 11.02 10.52 0 0 0
366 3 157.5801348876953 10.52 11.02 0 0 0
367 2 158.5801348876953 11.02 11.02 0 0 0
368 1 157.5801348876953 11.02 11.02 0 0 0
369 6 156.5801348876953 10.52 11.52 0 0 0
370 6 156.5801348876953 11.52 11.52 0 0 0
371 6 156.5801348876953 11.52 10.52 0 0 0
372 6 156.5801348876953 10.52 10.52 0 0 0
373 8 60.495784301757794 23.02 23.02 1 0 0
374 6 155.5801348876953 10.52 11.52 0 0 0
375 6 155.5801348876953 11.52 11.52 0 0 0
376 6 155.5801348876953 11.52 10.52 0 0 0
377 6 155.5801348876953 10.52 10.52 0 0 0
378 4 156.5801348876953 11.02 11.52 0 0 0
379 3 156.5801348876953 11.52 11.02 0 0 0
380 4 156.5801348876953 11.02 10.52 0 0 0
381 3 156.5801348876953 10.52 11.02 0 0 0
382 4 155.5801348876953 11.02 11.52 0 0 0
383 3 155.5801348876953 11.52 11.02 0 0 0
384 4 155.5801348876953 11.02 10.52 0 0 0
385 3 155.5801348876953 10.52 11.02 0 0 0
386 2 156.5801348876953 11.02 11.02 0 0 0
387 1 155.5801348876953 11.02 11.02 0 0 0
388 6 154.5801348876953 10.52 11.52 0 0 0
389 6 154.5801348876953 11.52 11.52 0 0 0
390 6 154.5801348876953 11.52 10.52 0 0 0
391 6 154.5801348876953 10.52 10.52 0 0 0
392 6 153.5801348876953 10.52 11.52 0 0 0
393 6 153.5801348876953 11.52 11.52 0 0 0
394 6 153.5801348876953 11.52 10.52 0 0 0
395 6 153.5801348876953 10.52 10.52 0 0 0
396 4 154.5801348876953 11.02 11.52 0 0 0
397 3 154.5801348876953 11.52 11.02 0 0 0
398 5 29.495784301757794 21.02 21.02 1 0 0
399 5 23.495784301757794 21.02 21.02 1 0 0
400 4 154.5801348876953 11.02 10.52 0 0 0
401 3 154.5801348876953 10.52 11.02 0 0 0
402 4 153.5801348876953 11.02 11.52 0 0 0
403 3 153.5801348876953 11.52 11.02 0 0 0
404 4 153.5801348876953 11.02 10.52 0 0 0
405 3 153.5801348876953 10.52 11.02 0 0 0
406 2 154.5801348876953 11.02 11.02 0 0 0
407 1 153.5801348876953 11.02 11.02 0 0 0
408 5 164.5801348876953 11.02 9.02 0 0 0
409 5 26.495784301757794 21.02 21.02 1 0 0
410 5 166.5801348876953 11.02 9.02 0 0 0
411 5 24.495784301757794 21.02 23.02 1 0 0
412 5 0.4957843017577943 23.02 21.02 1 0 0
413 5 1.4957843017577943 23.02 21.02 1 0 0
414 5 25.495784301757794 23.02 21.02 1 0 0
415 1 9.495784301757794 23.02 23.02 1 0 0
416 2 10.495784301757794 23.02 23.02 1 0 0
417 3 9.495784301757794 22.52 23.02 1 0 0
418 4 9.495784301757794 23.02 22.52 1 0 0
419 3 9.495784301757794 23.52 23.02 1 0 0
420 4 9.495784301757794 23.02 23.52 1 0 0
421 3 10.495784301757794 22.52 23.02 1 0 0
422 4 10.495784301757794 23.02 22.52 1 0 0
423 3 10.495784301757794 23.52 23.02 1 0 0
424 4 10.495784301757794 23.02 23.52 1 0 0
425 6 9.495784301757794 22.52 22.52 1 0 0
426 6 9.495784301757794 23.52 22.52 1 0 0
427 6 9.495784301757794 23.52 23.52 1 0 0
428 6 9.495784301757794 22.52 23.52 1 0 0
429 6 10.495784301757794 22.52 22.52 1 0 0
430 6 10.495784301757794 23.52 22.52 1 0 0
431 6 10.495784301757794 23.52 23.52 1 0 0
432 6 10.495784301757794 22.52 23.52 1 0 0
433 1 11.495784301757794 23.02 23.02 1 0 0
434 2 12.495784301757794 23.02 23.02 1 0 0
435 3 11.495784301757794 22.52 23.02 1 0 0
436 4 11.495784301757794 23.02 22.52 1 0 0
437 3 11.495784301757794 23.52 23.02 1 0 0
438 4 11.495784301757794 23.02 23.52 1 0 0
439 3 12.495784301757794 22.52 23.02 1 0 0
440 4 12.495784301757794 23.02 22.52 1 0 0
441 3 12.495784301757794 23.52 23.02 1 0 0
442 4 12.495784301757794 23.02 23.52 1 0 0
443 6 11.495784301757794 22.52 22.52 1 0 0
444 6 11.495784301757794 23.52 22.52 1 0 0
445 6 11.495784301757794 23.52 23.52 1 0 0
446 6 11.495784301757794 22.52 23.52 1 0 0
447 6 12.495784301757794 22.52 22.52 1 0 0
448 6 12.495784301757794 23.52 22.52 1 0 0
449 6 12.495784301757794 23.52 23.52 1 0 0
450 6 12.495784301757794 22.52 23.52 1 0 0
451 1 13.495784301757794 23.02 23.02 1 0 0
452 2 14.495784301757794 23.02 23.02 1 0 0
453 8 204.5801348876953 11.02 11.02 0 0 0
454 7 203.5801348876953 11.02 11.02 0 0 0
455 8 202.5801348876953 11.02 11.02 0 0 0
456 7 201.5801348876953 11.02 11.02 0 0 0
457 8 200.5801348876953 11.02 11.02 0 0 0
458 7 199.5801348876953 11.02 11.02 0 0 0
459 8 198.5801348876953 11.02 11.02 0 0 0
460 7 197.5801348876953 11.02 11.02 0 0 0
461 8 196.5801348876953 11.02 11.02 0 0 0
462 7 195.5801348876953 11.02 11.02 0 0 0
463 8 194.5801348876953 11.02 11.02 0 0 0
464 7 193.5801348876953 11.02 11.02 0 0 0
465 8 184.5801348876953 11.02 11.02 0 0 0
466 7 183.5801348876953 11.02 11.02 0 0 0
467 8 182.5801348876953 11.02 11.02 0 0 0
468 7 181.5801348876953 11.02 11.02 0 0 0
469 3 13.495784301757794 22.52 23.02 1 0 0
470 4 13.495784301757794 23.02 22.52 1 0 0
471 8 180.5801348876953 11.02 11.02 0 0 0
472 7 179.5801348876953 11.02 11.02 0 0 0
473 8 178.5801348876953 11.02 11.02 0 0 0
474 7 177.5801348876953 11.02 11.02 0 0 0
475 8 176.5801348876953 11.02 11.02 0 0 0
476 7 175.5801348876953 11.02 11.02 0 0 0
477 8 174.5801348876953 11.02 11.02 0 0 0
478 7 173.5801348876953 11.02 11.02 0 0 0
479 6 192.5801348876953 10.52 11.52 0 0 0
480 6 192.5801348876953 11.52 11.52 0 0 0
481 6 192.5801348876953 11.52 10.52 0 0 0
482 6 192.5801348876953 10.52 10.52 0 0 0
483 6 191.5801348876953 10.52 11.52 0 0 0
484 6 191.5801348876953 11.52 11.52 0 0 0
485 6 191.5801348876953 11.52 10.52 0 0 0
486 6 191.5801348876953 10.52 10.52 0 0 0
487 3 13.495784301757794 23.52 23.02 1 0 0
488 4 13.495784301757794 23.02 23.52 1 0 0
489 4 192.5801348876953 11.02 11.52 0 0 0
490 3 192.5801348876953 11.52 11.02 0 0 0
491 4 192.5801348876953 11.02 10.52 0 0 0
492 3 192.5801348876953 10.52 11.02 0 0 0
493 4 191.5801348876953 11.02 11.52 0 0 0
494 3 191.5801348876953 11.52 11.02 0 0 0
495 4 191.5801348876953 11.02 10.52 0 0 0
496 3 191.5801348876953 10.52 11.02 0 0 0
497 2 192.5801348876953 11.02 11.02 0 0 0
498 1 191.5801348876953 11.02 11.02 0 0 0
499 6 190.5801348876953 10.52 11.52 0 0 0
500 6 190.5801348876953 11.52 11.52 0 0 0
501 6 190.5801348876953 11.52 10.52 0 0 0
502 6 190.5801348876953 10.52 10.52 0 0 0
503 6 189.5801348876953 10.52 11.52 0 0 0
504 6 189.5801348876953 11.52 11.52 0 0 0
505 3 14.495784301757794 22.52 23.02 1 0 0
506 4 14.495784301757794 23.02 22.52 1 0 0
507 6 189.5801348876953 11.52 10.52 0 0 0
508 6 189.5801348876953 10.52 10.52 0 0 0
509 4 190.5801348876953 11.02 11.52 0 0 0
510 3 190.5801348876953 11.52 11.02 0 0 0
511 4 190.5801348876953 11.02 10.52 0 0 0
512 3 190.5801348876953 10.52 11.02 0 0 0
513 4 189.5801348876953 11.02 11.52 0 0 0
514 3 189.5801348876953 11.52 11.02 0 0 0
515 4 189.5801348876953 11.02 10.52 0 0 0
516 3 189.5801348876953 10.52 11.02 0 0 0
517 2 190.5801348876953 11.02 11.02 0 0 0
518 1 189.5801348876953 11.02 11.02 0 0 0
519 6 188.5801348876953 10.52 11.52 0 0 0
520 6 188.5801348876953 11.52 11.52 0 0 0
521 6 188.5801348876953 11.52 10.52 0 0 0
522 6 188.5801348876953 10.52 10.52 0 0 0
523 3 14.495784301757794 23.52 23.02 1 0 0
524 6 187.5801348876953 10.52 11.52 0 0 0
525 6 187.5801348876953 11.52 11.52 0 0 0
526 6 187.5801348876953 11.52 10.52 0 0 0
527 6 187.5801348876953 10.52 10.52 0 0 0
528 4 188.5801348876953 11.02 11.52 0 0 0
529 3 188.5801348876953 11.52 11.02 0 0 0
530 4 188.5801348876953 11.02 10.52 0 0 0
531 3 188.5801348876953 10.52 11.02 0 0 0
532 4 187.5801348876953 11.02 11.52 0 0 0
533 3 187.5801348876953 11.52 11.02 0 0 0
534 4 187.5801348876953 11.02 10.52 0 0 0
535 3 187.5801348876953 10.52 11.02 0 0 0
536 2 188.5801348876953 11.02 11.02 0 0 0
537 1 187.5801348876953 11.02 11.02 0 0 0
538 6 186.5801348876953 10.52 11.52 0 0 0
539 6 186.5801348876953 11.52 11.52 0 0 0
540 6 186.5801348876953 11.52 10.52 0 0 0
541 6 186.5801348876953 10.52 10.52 0 0 0
542 6 185.5801348876953 10.52 11.52 0 0 0
543 6 185.5801348876953 11.52 11.52 0 0 0
544 6 185.5801348876953 11.52 10.52 0 0 0
545 6 185.5801348876953 10.52 10.52 0 0 0
546 4 186.5801348876953 11.02 11.52 0 0 0
547 3 186.5801348876953 11.52 11.02 0 0 0
548 4 14.495784301757794 23.02 23.52 1 0 0
549 6 13.495784301757794 22.52 22.52 1 0 0
550 4 186.5801348876953 11.02 10.52 0 0 0
551 3 186.5801348876953 10.52 11.02 0 0 0
552 4 185.5801348876953 11.02 11.52 0 0 0
553 3 185.5801348876953 11.52 11.02 0 0 0
554 4 185.5801348876953 11.02 10.52 0 0 0
555 3 185.5801348876953 10.52 11.02 0 0 0
556 2 186.5801348876953 11.02 11.02 0 0 0
557 1 185.5801348876953 11.02 11.02 0 0 0
558 6 13.495784301757794 23.52 22.52 1 0 0
559 6 13.495784301757794 23.52 23.52 1 0 0
560 6 13.495784301757794 22.52 23.52 1 0 0
561 6 14.495784301757794 22.52 22.52 1 0 0
562 6 14.495784301757794 23.52 22.52 1 0 0
563 6 14.495784301757794 23.52 23.52 1 0 0
564 6 14.495784301757794 22.52 23.52 1 0 0
565 1 15.495784301757794 23.02 23.02 1 0 0
566 2 16.495784301757794 23.02 23.02 1 0 0
567 5 201.5801348876953 9.02 11.02 0 0 0
568 3 15.495784301757794 22.52 23.02 1 0 0
569 4 15.495784301757794 23.02 22.52 1 0 0
570 3 15.495784301757794 23.52 23.02 1 0 0
571 4 15.495784301757794 23.02 23.52 1 0 0
572 3 16.495784301757794 22.52 23.02 1 0 0
573 4 16.495784301757794 23.02 22.52 1 0 0
574 3 16.495784301757794 23.52 23.02 1 0 0
575 5 179.5801348876953 11.02 9.02 0 0 0
576 4 16.495784301757794 23.02 23.52 1 0 0
577 5 1.4957843017577943 21.02 21.02 1 0 0
578 6 15.495784301757794 22.52 22.52 1 0 0
579 6 15.495784301757794 23.52 22.52 1 0 0
580 5 174.5801348876953 11.02 9.02 0 0 0
581 6 15.495784301757794 23.52 23.52 1 0 0
582 6 15.495784301757794 22.52 23.52 1 0 0
583 6 16.495784301757794 22.52 22.52 1 0 0
584 6 16.495784301757794 23.52 22.52 1 0 0
585 6 16.495784301757794 23.52 23.52 1 0 0
586 6 16.495784301757794 22.52 23.52 1 0 0
587 7 509.4957843017578 23.02 23.02 0 0 0
588 8 510.4957843017578 23.02 23.02 0 0 0
589 7 511.4957843017578 23.02 23.02 0 0 0
590 8 0.4957843017577943 23.02 23.02 1 0 0
591 7 1.4957843017577943 23.02 23.02 1 0 0
592 8 2.4957843017577943 23.02 23.02 1 0 0
593 7 3.4957843017577943 23.02 23.02 1 0 0
594 8 4.495784301757794 23.02 23.02 1 0 0
595 5 0.4957843017577943 21.02 21.02 1 0 0
596 7 5.495784301757794 23.02 23.02 1 0 0
597 8 6.495784301757794 23.02 23.02 1 0 0
598 7 7.495784301757794 23.02 23.02 1 0 0
599 8 8.495784301757794 23.02 23.02 1 0 0
600 7 17.495784301757794 23.02 23.02 1 0 0
601 8 18.495784301757794 23.02 23.02 1 0 0
602 7 19.495784301757794 23.02 23.02 1 0 0
603 8 236.5801348876953 11.02 11.02 0 0 0
604 7 235.5801348876953 11.02 11.02 0 0 0
605 8 234.5801348876953 11.02 11.02 0 0 0
606 7 233.5801348876953 11.02 11.02 0 0 0
607 8 232.5801348876953 11.02 11.02 0 0 0
608 7 231.5801348876953 11.02 11.02 0 0 0
609 8 230.5801348876953 11.02 11.02 0 0 0
610 7 229.5801348876953 11.02 11.02 0 0 0
611 8 228.5801348876953 11.02 11.02 0 0 0
612 7 227.5801348876953 11.02 11.02 0 0 0
613 8 226.5801348876953 11.02 11.02 0 0 0
614 7 225.5801348876953 11.02 11.02 0 0 0
615 8 216.5801348876953 11.02 11.02 0 0 0
616 7 215.5801348876953 11.02 11.02 0 0 0
617 8 214.5801348876953 11.02 11.02 0 0 0
618 7 213.5801348876953 11.02 11.02 0 0 0
619 8 20.495784301757794 23.02 23.02 1 0 0
620 7 21.495784301757794 23.02 23.02 1 0 0
621 8 212.5801348876953 11.02 11.02 0 0 0
622 7 211.5801348876953 11.02 11.02 0 0 0
623 8 210.5801348876953 11.02 11.02 0 0 0
624 7 209.5801348876953 11.02 11.02 0 0 0
625 8 208.5801348876953 11.02 11.02 0 0 0
626 7 207.5801348876953 11.02 11.02 0 0 0
627 8 206.5801348876953 11.02 11.02 0 0 0
628 7 205.5801348876953 11.02 11.02 0 0 0
629 6 224.5801348876953 10.52 11.52 0 0 0
630 6 224.5801348876953 11.52 11.52 0 0 0
631 6 224.5801348876953 11.52 10.52 0 0 0
632 6 224.5801348876953 10.52 10.52 0 0 0
633 6 223.5801348876953 10.52 11.52 0 0 0
634 6 223.5801348876953 11.52 11.52 0 0 0
635 6 223.5801348876953 11.52 10.52 0 0 0
636 6 223.5801348876953 10.52 10.52 0 0 0
637 8 22.495784301757794 23.02 23.02 1 0 0
638 7 23.495784301757794 23.02 23.02 1 0 0
639 4 224.5801348876953 11.02 11.52 0 0 0
640 3 224.5801348876953 11.52 11.02 0 0 0
641 4 224.5801348876953 11.02 10.52 0 0 0
642 3 224.5801348876953 10.52 11.02 0 0 0
643 4 223.5801348876953 11.02 11.52 0 0 0
644 3 223.5801348876953 11.52 11.02 0 0 0
645 4 223.5801348876953 11.02 10.52 0 0 0
646 3 223.5801348876953 10.52 11.02 0 0 0
647 2 224.5801348876953 11.02 11.02 0 0 0
648 1 223.5801348876953 11.02 11.02 0 0 0
649 6 222.5801348876953 10.52 11.52 0 0 0
650 6 222.5801348876953 11.52 11.52 0 0 0
651 6 222.5801348876953 11.52 10.52 0 0 0
652 6 222.5801348876953 10.52 10.52 0 0 0
653 6 221.5801348876953 10.52 11.52 0 0 0
654 6 221.5801348876953 11.52 11.52 0 0 0
655 5 211.5801348876953 9.02 9.02 0 0 0
656 8 24.495784301757794 23.02 23.02 1 0 0
657 6 221.5801348876953 11.52 10.52 0 0 0
658 6 221.5801348876953 10.52 10.52 0 0 0
659 4 222.5801348876953 11.02 11.52 0 0 0
660 3 222.5801348876953 11.52 11.02 0 0 0
661 4 222.5801348876953 11.02 10.52 0 0 0
662 3 222.5801348876953 10.52 11.02 0 0 0
663 4 221.5801348876953 11.02 11.52 0 0 0
664 3 221.5801348876953 11.52 11.02 0 0 0
665 4 221.5801348876953 11.02 10.52 0 0 0
666 3 221.5801348876953 10.52 11.02 0 0 0
667 2 222.5801348876953 11.02 11.02 0 0 0
668 1 221.5801348876953 11.02 11.02 0 0 0
669 6 220.5801348876953 10.52 11.52 0 0 0
670 6 220.5801348876953 11.52 11.52 0 0 0
671 6 220.5801348876953 11.52 10.52 0 0 0
672 6 220.5801348876953 10.52 10.52 0 0 0
673 7 25.495784301757794 23.02 23.02 1 0 0
674 6 219.5801348876953 10.52 11.52 0 0 0
675 6 219.5801348876953 11.52 11.52 0 0 0
676 6 219.5801348876953 11.52 10.52 0 0 0
677 6 219.5801348876953 10.52 10.52 0 0 0
678 4 220.5801348876953 11.02 11.52 0 0 0
679 3 220.5801348876953 11.52 11.02 0 0 0
680 4 220.5801348876953 11.02 10.52 0 0 0
681 3 220.5801348876953 10.52 11.02 0 0 0
682 4 219.5801348876953 11.02 11.52 0 0 0
683 3 219.5801348876953 11.52 11.02 0 0 0
684 4 219.5801348876953 11.02 10.52 0 0 0
685 3 219.5801348876953 10.52 11.02 0 0 0
686 2 220.5801348876953 11.02 11.02 0 0 0
687 1 219.5801348876953 11.02 11.02 0 0 0
688 6 218.5801348876953 10.52 11.52 0 0 0
689 6 218.5801348876953 11.52 11.52 0 0 0
690 6 218.5801348876953 11.52 10.52 0 0 0
691 6 218.5801348876953 10.52 10.52 0 0 0
692 6 217.5801348876953 10.52 11.52 0 0 0
693 6 217.5801348876953 11.52 11.52 0 0 0
694 6 217.5801348876953 11.52 10.52 0 0 0
695 6 217.5801348876953 10.52 10.52 0 0 0
696 4 218.5801348876953 11.02 11.52 0 0 0
697 3 218.5801348876953 11.52 11.02 0 0 0
698 8 26.495784301757794 23.02 23.02 1 0 0
699 7 27.495784301757794 23.02 23.02 1 0 0
700 4 218.5801348876953 11.02 10.52 0 0 0
701 3 218.5801348876953 10.52 11.02 0 0 0
702 4 217.5801348876953 11.02 11.52 0 0 0
703 3 217.5801348876953 11.52 11.02 0 0 0
704 4 217.5801348876953 11.02 10.52 0 0 0
705 3 217.5801348876953 10.52 11.02 0 0 0
706 2 218.5801348876953 11.02 11.02 0 0 0