LAMMPS (19 Nov 2024 - Development - patch_2Jul2021-14588-g93bfae9507)
OMP_NUM_THREADS environment is not set. Defaulting to 1 thread. (src/comm.cpp:99)
  using 1 OpenMP thread(s) per MPI task
######### 3d Lennard-Jones for polymeric system #############
######## simulting polymer brush by "grafting from" approach##
##### study the effect of iniatior density embedded in the #### #### substrate on chain length disbribution and polydispersity###

units		lj
atom_style	atomic
boundary        p p p
########## configure the simulation setup ############
#rho is 0.016 before
variable        rho equal 2/(2*2^(1./6.))^3

variable        dimx equal 16
variable        dimy equal 7
variable        dimz equal 7

#variable        rho2 equal 6./(2*2^(1./6.))^3
variable        rho2 equal 18./(2)^3
# set up initial hard segment crystal structure
lattice	custom ${rho2}                 basis 0.01 0.51 0.51 basis 0.51 0.51 0.51                 basis 0.01 0.26 0.51                 basis 0.01 0.51 0.26                 basis 0.01 0.76 0.51                 basis 0.01 0.51 0.76                 basis 0.51 0.26 0.51                 basis 0.51 0.51 0.26                 basis 0.51 0.76 0.51                 basis 0.51 0.51 0.76                 basis 0.01 0.26 0.26                 basis 0.01 0.76 0.26                 basis 0.01 0.76 0.76                 basis 0.01 0.26 0.76                 basis 0.51 0.26 0.26                 basis 0.51 0.76 0.26                 basis 0.51 0.76 0.76                 basis 0.51 0.26 0.76
lattice	custom 2.25                 basis 0.01 0.51 0.51 basis 0.51 0.51 0.51                 basis 0.01 0.26 0.51                 basis 0.01 0.51 0.26                 basis 0.01 0.76 0.51                 basis 0.01 0.51 0.76                 basis 0.51 0.26 0.51                 basis 0.51 0.51 0.26                 basis 0.51 0.76 0.51                 basis 0.51 0.51 0.76                 basis 0.01 0.26 0.26                 basis 0.01 0.76 0.26                 basis 0.01 0.76 0.76                 basis 0.01 0.26 0.76                 basis 0.51 0.26 0.26                 basis 0.51 0.76 0.26                 basis 0.51 0.76 0.76                 basis 0.51 0.26 0.76
Lattice spacing in x,y,z = 2 2 2
region		box block  0  ${dimx}  2  ${dimy}  2  ${dimz}
region		box block  0  16  2  ${dimy}  2  ${dimz}
region		box block  0  16  2  7  2  ${dimz}
region		box block  0  16  2  7  2  7
# create hard segment atoms with chain in the middle #
region		middle block  6 10 5 6 5 6

create_box	9 box
Created orthogonal box = (0 4 4) to (32 14 14)
  1 by 1 by 1 MPI processor grid

#region		new block 2 3 2 3 5 ${dimz}

create_atoms	9 region box  basis 1 5 basis 2 5
Created 7200 atoms
  using lattice units in orthogonal box = (0 4 4) to (32 14 14)
  create_atoms CPU = 0.008 seconds
region		hollow block INF INF 3 8 3 8
delete_atoms	region hollow
Deleted 4608 atoms, new total = 2592
region		hollow2 block 0 11 INF INF INF INF
delete_atoms	region hollow2
Deleted 1782 atoms, new total = 810


create_atoms	9 region middle basis 1 1 basis 2 2 		basis 3 3 		basis 4 4 		basis 5 3 		basis 6 4 		basis 7 3 		basis 8 4 		basis 9 3 		basis 10 4 		basis 11 6 		basis 12 6 		basis 13 6 		basis 14 6 		basis 15 6 		basis 16 6 		basis 17 6 		basis 18 6
Created 72 atoms
  using lattice units in orthogonal box = (0 4 4) to (32 14 14)
  create_atoms CPU = 0.000 seconds
# create soft segment
region		middle5 block  0 6 5 6 5 6
create_atoms	9 region middle5 basis 1 7 basis 2 8
Created 108 atoms
  using lattice units in orthogonal box = (0 4 4) to (32 14 14)
  create_atoms CPU = 0.000 seconds

region		middle2 block  10 16 5 6 5 6
create_atoms	9 region middle2 basis 1 7 basis 2 8
Created 108 atoms
  using lattice units in orthogonal box = (0 4 4) to (32 14 14)
  create_atoms CPU = 0.000 seconds


#mass (soft segment = 1.0 / hard segment = 0.99 (0.11*9) / solvent = 0.16)
variable	mass5 equal 1.0
mass		* 1.0
mass		1 0.2
mass		2 0.2
mass		3 0.1
mass		4 0.1
mass		5 0.35

mass		6 0.1
mass		7 1.0
mass            8 1.0

###### randomly reset some of the bottom substrate atoms to radical atoms ####

group           patch4 type 4
16 atoms in group patch4
group		patch1 type 1
4 atoms in group patch1
group		patch2 type 2
4 atoms in group patch2
group		patch3 type 3
16 atoms in group patch3
group		patch6 type 6
32 atoms in group patch6
group           patch5 type 5
90 atoms in group patch5
group           patch7 type 7
12 atoms in group patch7
group           patch8 type 8
12 atoms in group patch8
#delete_atoms	group patch6
group		patch9 type 9
912 atoms in group patch9
delete_atoms	group patch9
Deleted 912 atoms, new total = 186
#delete_atoms    group patch3
#delete_atoms    group patch4
#delete_atoms    group patch6

#temperature is 0.028 before
variable	t equal 0.2
variable	tf equal 0.2
velocity	all create $t 55
velocity	all create 0.2 55

#c is 2.35 before for chains, 1.9 for very compact
variable	c equal 1.8
variable	s equal $c/2^(1./6.)
variable	s equal 1.8/2^(1./6.)

#variable        m equal ${shift}/2^(1./6.)
#variable        n equal $m*1.6

variable	u equal 1.0
variable	v equal $u/2^(1./6.)
variable	v equal 1/2^(1./6.)

variable	p equal 1.0
variable	q equal $p/2^(1./6.)
variable	q equal 1/2^(1./6.)

variable	h equal 1.0
variable	k equal $h/2^(1./6.)
variable	k equal 1/2^(1./6.)

variable	h2 equal 1.0
variable	k2 equal ${h2}/2^(1./6.)
variable	k2 equal 1/2^(1./6.)

variable	h3 equal sqrt(2.0) # 1.414
variable	k3 equal ${h3}/2^(1./6.)
variable	k3 equal 1.4142135623731/2^(1./6.)

variable        b equal 0.2
variable	b1 equal 0.14

variable        c3 equal 2.0
variable        s3 equal ${c3}/2^(1./6.)
variable        s3 equal 2/2^(1./6.)

variable        c5 equal 1.6
variable        s5 equal ${c5}/2^(1./6.)
variable        s5 equal 1.6/2^(1./6.)

variable        h4 equal 0.5
variable        k4 equal ${h4}/2^(1./6.)
variable        k4 equal 0.5/2^(1./6.)

variable        h5 equal 0.25
variable        k5 equal ${h5}/2^(1./6.)
variable        k5 equal 0.25/2^(1./6.)

variable        c4 equal 0.707
variable        s4 equal ${c4}/2^(1./6.)
variable        s4 equal 0.707/2^(1./6.)

variable        c6 equal 2.5
variable        s6 equal ${c6}/2^(1./6.)
variable        s6 equal 2.5/2^(1./6.)

variable        c7 equal 2.8
variable        s7 equal ${c7}/2^(1./6.)
variable        s7 equal 2.8/2^(1./6.)

#pair_style	lj/cut/bump/smooth/linear 2.5
pair_style	lj/cut/bump 2.8 #cutoff 2.8
pair_coeff      * * 0.02 $v 1.0 1 0 $u
pair_coeff      * * 0.02 0.890898718140339 1.0 1 0 $u
pair_coeff      * * 0.02 0.890898718140339 1.0 1 0 1

#backbone
#in hard segment
pair_coeff	1 1 5.0 $s  1.0 1 0 1.8 #1.8 only repulsion
pair_coeff	1 1 5.0 1.60361769265261  1.0 1 0 1.8 
pair_coeff	2 2 5.0 $s  1.0 1 0 1.8 #1.8 only repulsion
pair_coeff	2 2 5.0 1.60361769265261  1.0 1 0 1.8 
pair_coeff	1 2 5.0 ${k2} 1.2 1 1.0 1.8 #1 strong bond
pair_coeff	1 2 5.0 0.890898718140339 1.2 1 1.0 1.8 

#connect soft segments in outside and inside hard segments
pair_coeff      2 7 20.0 ${k2} 1.2 1 1.0 1.8 #1 strong bond
pair_coeff      2 7 20.0 0.890898718140339 1.2 1 1.0 1.8 
pair_coeff      1 8 20.0 ${k2} 1.2 1 1.0 1.8 #1 strong bond
pair_coeff      1 8 20.0 0.890898718140339 1.2 1 1.0 1.8 
pair_coeff      1 7 20.0 $s  1.0 1 0 1.8 #1.8 only repulsion
pair_coeff      1 7 20.0 1.60361769265261  1.0 1 0 1.8 
pair_coeff      2 8 20.0 $s  1.0 1 0 1.8 #1.8 only repulsion
pair_coeff      2 8 20.0 1.60361769265261  1.0 1 0 1.8 

#soft segment (distance between soft/soft = 2.2)
pair_coeff      7 7 20.0 $s  1.0 1 0 1.8 #1.8 only repulsion
pair_coeff      7 7 20.0 1.60361769265261  1.0 1 0 1.8 
pair_coeff      8 8 20.0 $s  1.0 1 0 1.8 #1.8 only repulsion
pair_coeff      8 8 20.0 1.60361769265261  1.0 1 0 1.8 
pair_coeff      7 8 20.0 ${k2} 1.2 1 1.0 1.8 #1 strong bond
pair_coeff      7 8 20.0 0.890898718140339 1.2 1 1.0 1.8 

#intramolecular interactions in hard segments
pair_coeff	1 3 20.0 ${k4} 1.2 1 2.0 1.118 #0.5 strong bond
pair_coeff	1 3 20.0 0.44544935907017 1.2 1 2.0 1.118 
pair_coeff	2 3 20.0 ${k4} 1.2 1 2.0 1.118 #0.5 strong bond
pair_coeff	2 3 20.0 0.44544935907017 1.2 1 2.0 1.118 
pair_coeff	1 4 20.0 ${k4} 1.2 1 2.0 1.118 #0.5 strong bond
pair_coeff	1 4 20.0 0.44544935907017 1.2 1 2.0 1.118 
pair_coeff	2 4 20.0 ${k4} 1.2 1 2.0 1.118 #0.5 strong bond
pair_coeff	2 4 20.0 0.44544935907017 1.2 1 2.0 1.118 
pair_coeff      1*2 6 20.0 ${s4} 1.2 1 2.0 1.225 #0.707 strong bond
pair_coeff      1*2 6 20.0 0.62986539372522 1.2 1 2.0 1.225 

pair_coeff      3 4 20.0 ${s4} 1.2 1 2.0 1.225 #0.707 weak bond
pair_coeff      3 4 20.0 0.62986539372522 1.2 1 2.0 1.225 
pair_coeff      3*4 6 20.0 ${k4} 1.2 1 2.0 1.118 #0.5 strong bond
pair_coeff      3*4 6 20.0 0.44544935907017 1.2 1 2.0 1.118 
#pair_coeff      3*4 6 0.01 ${k5} 1.2 1 0.0 0.25 #0.25 only repulsion

pair_coeff	3 3 5.0 ${k2} 1.2 1 1.0 1.414 #1 strong bond
pair_coeff	3 3 5.0 0.890898718140339 1.2 1 1.0 1.414 
pair_coeff	4 4 5.0 ${k2} 1.2 1 1.0 1.414 #1 strong bond
pair_coeff	4 4 5.0 0.890898718140339 1.2 1 1.0 1.414 

pair_coeff      6 6 5.0 ${k2} 1.2 1 1.0 1.414 #1 strong bond
pair_coeff      6 6 5.0 0.890898718140339 1.2 1 1.0 1.414 

#intermolecular interactions between soft and hard segments

pair_coeff      3*4 7 0.01 ${k4} 1.2 1 0.0 0.5 #0.5 only repulsion
pair_coeff      3*4 7 0.01 0.44544935907017 1.2 1 0.0 0.5 
pair_coeff      3*4 8 0.01 ${k4} 1.2 1 0.0 0.5 #0.5 only repulsion
pair_coeff      3*4 8 0.01 0.44544935907017 1.2 1 0.0 0.5 
pair_coeff      6 7 0.01 ${k4} 1.2 1 0.0 0.5 #0.5 only repulsion
pair_coeff      6 7 0.01 0.44544935907017 1.2 1 0.0 0.5 
pair_coeff      6 8 0.01 ${k4} 1.2 1 0.0 0.5 #0.5 only repulsion
pair_coeff      6 8 0.01 0.44544935907017 1.2 1 0.0 0.5 

#interaction with solvent particles
variable        c8 equal 2.0
variable        s8 equal ${c8}/2^(1./6.)
variable        s8 equal 2/2^(1./6.)

variable        c9 equal 2.2
variable        s9 equal ${c9}/2^(1./6.)
variable        s9 equal 2.2/2^(1./6.)

variable        c10 equal 0.3
variable        s10 equal ${c10}/2^(1./6.)
variable        s10 equal 0.3/2^(1./6.)

pair_coeff      1*2 5 0.05 ${s9} 1.2 1 0.0 2.2 # 2.2 only repulsion
pair_coeff      1*2 5 0.05 1.95997717990875 1.2 1 0.0 2.2 

pair_coeff      3*4 5 0.01 ${s10} 1.2 1 0.0 0.3 #only repulsion
pair_coeff      3*4 5 0.01 0.267269615442102 1.2 1 0.0 0.3 
pair_coeff      5 6 0.01 ${s10} 1.2 1 0.0 0.3 #only repulsion
pair_coeff      5 6 0.01 0.267269615442102 1.2 1 0.0 0.3 

pair_coeff      5 5 0.05 ${s9} 1.2 1 0.0 2.2 # 2.2 only repulsion
pair_coeff      5 5 0.05 1.95997717990875 1.2 1 0.0 2.2 

pair_coeff      5 7 0.05 ${s8} 1.2 1 0.0 2.0 # 2.0 only repulsion
pair_coeff      5 7 0.05 1.78179743628068 1.2 1 0.0 2.0 
pair_coeff      5 8 0.05 ${s8} 1.2 1 0.0 2.0 # 2.0 only repulsion
pair_coeff      5 8 0.05 1.78179743628068 1.2 1 0.0 2.0 

#velocity	all set NULL 0.0 0.0
#fix		11 all setforce NULL 0.0 0.0

pair_modify	tail no
pair_modify	shift yes
neighbor	1.0 bin
neigh_modify	every 1 delay 0 check yes

timestep	0.001
thermo		100
thermo_style    custom step temp pe ke etotal pxx pyy pzz lx ly lz press vol

dump            1 all custom 100000 lata4olivia_initial id type x y z fx fy fz

############temperature control
fix             1 all nvt temp ${tf} ${tf} 0.1
fix             1 all nvt temp 0.2 ${tf} 0.1
fix             1 all nvt temp 0.2 0.2 0.1

############decide the length of the chain and the number of chains
variable        nrepeat equal 16 #chain length
#variable        nrep equal 4  #sample size

###############make one single chain
replicate       ${nrepeat} 1 1
replicate       16 1 1
Replication is creating a 16x1x1 = 16 times larger system...
  orthogonal box = (0 4 4) to (512 14 14)
  1 by 1 by 1 MPI processor grid
  2976 atoms
  replicate CPU = 0.004 seconds
region  end block  0 2 INF INF INF INF units box
delete_atoms    region end
Deleted 2 atoms, new total = 2974

################increase the box
variable        newsized equal ly*16
fix             2 all deform 1 y final 0 ${newsized} z final 0 ${newsized} units box
fix             2 all deform 1 y final 0 160 z final 0 ${newsized} units box
fix             2 all deform 1 y final 0 160 z final 0 160 units box

run             10000#test!0
Generated 0 of 36 mixed pair_coeff terms from geometric mixing rule
Neighbor list info ...
  update: every = 1 steps, delay = 0 steps, check = yes
  max neighbors/atom: 2000, page size: 100000
  master list distance cutoff = 3.2
  ghost atom cutoff = 3.2
  binsize = 1.6, bins = 320 7 7
  1 neighbor lists, perpetual/occasional/extra = 1 0 0
  (1) pair lj/cut/bump, perpetual
      attributes: half, newton on
      pair build: half/bin/atomonly/newton
      stencil: half/bin/3d
      bin: standard
Per MPI rank memory allocation (min/avg/max) = 3.685 | 3.685 | 3.685 Mbytes
   Step          Temp          PotEng         KinEng         TotEng          Pxx            Pyy            Pzz             Lx             Ly             Lz           Press          Volume    
         0   0.19898075     253.81757      0.29837077     254.11594      193.37004     -0.020769295   -0.021577408    512            10             10             64.442566      51200        
       100   1.2620716     -20.873287      1.8924708     -18.980816      0.42043783     0.045811665    0.031723151    512            11.5           11.5           0.16599088     67712        
       200   0.20631087    -21.295255      0.30936225    -20.985893      0.062387739    0.004282687   -0.00045181449  512            13             13             0.02207287     86528        
       300   0.10297321    -21.368774      0.15440788    -21.214366      0.0090861057   0.0039957052   0.0023422656   512            14.5           14.5           0.0051413588   107648       
       400   0.1162642     -21.386564      0.17433766    -21.212227      0.0046095912   0.0022174896   0.0029604226   512            16             16             0.0032625011   131072       
       500   0.23672089    -21.387967      0.35496194    -21.033006      0.0083931709   0.0023762273   0.0037374047   512            17.5           17.5           0.004835601    156800       
       600   0.30749637    -21.387029      0.46108946    -20.92594       0.0057074341   0.0017473191  -0.002428053    512            19             19             0.0016755667   184832       
       700   0.17511427    -21.388064      0.26258309    -21.125481      0.0021574814   0.0020291367   0.0042256386   512            20.5           20.5           0.0028040856   215168       
       800   0.12528093    -21.388465      0.18785821    -21.200607      0.0051988803   0.0035896765   5.5441828e-06  512            22             22             0.002931367    247808       
       900   0.17232108    -21.387786      0.25839471    -21.129391      0.00089007047 -0.0017803465  -0.0020931439   512            23.5           23.5          -0.00099447331  282752       
      1000   0.27879954    -21.385799      0.41805869    -20.96774       0.0071489572   0.0016560612   0.0013169907   512            25             25             0.003374003    320000       
      1100   0.23611447    -21.38516       0.35405262    -21.031107      0.0055783796   0.0018275804   0.0020213568   512            26.5           26.5           0.0031424389   359552       
      1200   0.14875576    -21.386122      0.22305862    -21.163064      0.00053694509  0.00089602293 -3.3297113e-07  512            28             28             0.00047754502  401408       
      1300   0.14719779    -21.38638       0.22072244    -21.165658      0.0014411604   0.0016620502   0.0013180857   512            29.5           29.5           0.0014737654   445568       
      1400   0.22546031    -21.384882      0.33807675    -21.046806      0.0025553205   9.1715342e-05 -0.00018739833  512            31             31             0.00081987918  492032       
      1500   0.26856286    -21.383776      0.40270884    -20.981067      0.0028490708   0.0008396044   0.00025529635  512            32.5           32.5           0.0013146572   540800       
      1600   0.18563577    -21.384819      0.27836003    -21.106459      0.00086435329  0.00073352926  0.00072582485  512            34             34             0.00077456913  591872       
      1700   0.14433392    -21.385053      0.21642809    -21.168625     -4.1974596e-05  0.00067310943  0.00034751945  512            35.5           35.5           0.00032621809  645248       
      1800   0.18250636    -21.384309      0.27366749    -21.110641      0.00054332374 -0.00016201903 -0.00022714121  512            37             37             5.1387834e-05  700928       
      1900   0.25840822    -21.383428      0.387482      -20.995946      0.0019653136   0.0004020801   3.4563916e-05  512            38.5           38.5           0.00080065255  758912       
      2000   0.22677542    -21.383721      0.34004874    -21.043672      0.0013392048   0.00017503829  0.00028103111  512            40             40             0.00059842472  819200       
      2100   0.15868175    -21.383712      0.2379426     -21.145769      0.0010390113   0.00071701894  0.00038308581  512            41.5           41.5           0.00071303868  881792       
      2200   0.15892765    -21.383927      0.23831131    -21.145616      0.00090792071 -3.741681e-05  -3.7055368e-05  512            43             43             0.00027781618  946688       
      2300   0.22348787    -21.383169      0.33511909    -21.04805       0.001281995    0.00067016193  8.3651286e-05  512            44.5           44.5           0.00067860272  1013888      
      2400   0.25269378    -21.382213      0.37891321    -21.003299      0.0012852864   0.00031319231 -0.00040170754  512            46             46             0.00039892371  1083392      
      2500   0.17832502    -21.368358      0.26739759    -21.10096       0.0015089806  -0.00021262474 -0.00015984214  512            47.5           47.5           0.00037883791  1155200      
      2600   0.16247652    -21.383083      0.24363283    -21.13945       0.00083975101 -0.00010547891  0.00021363041  512            49             49             0.0003159675   1229312      
      2700   0.19348767    -21.379256      0.29013391    -21.089122      0.00067385249  0.00058694088  0.00080416217  512            50.5           50.5           0.00068831851  1305728      
      2800   0.24104296    -21.376438      0.36144286    -21.014996      0.0011956095   0.00037931621  0.00063423019  512            52             52             0.0007363853   1384448      
      2900   0.21285862    -21.363015      0.31918056    -21.043834      0.00027273948  0.00048624004  0.00058843032  512            53.5           53.5           0.00044913661  1465472      
      3000   0.17320027    -21.366353      0.25971304    -21.10664       3.0514623e-05  0.0003771492  -1.689946e-05   512            55             55             0.00013025479  1548800      
      3100   0.18112652    -21.379334      0.27159843    -21.107736     -8.7957987e-05  0.00027053343  0.00059886958  512            56.5           56.5           0.00026048168  1634432      
      3200   0.21489768    -21.379706      0.32223813    -21.057467      0.00022434291  0.00037641743  8.3508752e-05  512            58             58             0.00022808969  1722368      
      3300   0.22393597    -21.379823      0.33579101    -21.044032      0.0001224375   0.00040788674  0.00040361528  512            59.5           59.5           0.00031131318  1812608      
      3400   0.19158676    -21.380701      0.28728351    -21.093418      0.00013752531  0.00047168762  0.0001176507   512            61             61             0.00024228787  1905152      
      3500   0.17554382    -21.381038      0.26322718    -21.117811      0.00032645049  8.2625656e-05  0.00014415194  512            62.5           62.5           0.00018440936  2000000      
      3600   0.19736608    -21.380102      0.29594958    -21.084152      0.00033465685  0.00012049799  2.8957377e-05  512            64             64             0.00016137074  2097152      
      3700   0.22647289    -21.380177      0.3395951     -21.040582      0.00044149508  0.00030146302  0.00013926686  512            65.5           65.5           0.00029407499  2196608      
      3800   0.20871569    -21.379558      0.31296826    -21.06659       0.00031022478  0.00015957648  0.00011092208  512            67             67             0.00019357445  2298368      
      3900   0.17894698    -21.379875      0.26833021    -21.111545      0.00035548733  0.00020114708  9.4267727e-06  512            68.5           68.5           0.00018868706  2402432      
      4000   0.18330413    -21.379415      0.27486374    -21.104551      0.00012657355  0.0001237069   0.00028883988  512            70             70             0.00017970677  2508800      
      4100   0.21573085    -21.378292      0.32348747    -21.054805      0.00021616962  0.00040854885  6.4370902e-05  512            71.5           71.5           0.00022969645  2617472      
      4200   0.22241444    -21.377772      0.33350948    -21.044262      0.00015765405  0.00017169286  0.0003226647   512            73             73             0.0002173372   2728448      
      4300   0.19087524    -21.378428      0.28621659    -21.092211     -1.5682597e-05  0.00035628226 -3.5282258e-05  512            74.5           74.5           0.00010177247  2841728      
      4400   0.17650971    -21.378631      0.26467555    -21.113956     -0.0001774438   3.6356167e-05  0.00011555031  512            76             76            -8.5124415e-06  2957312      
      4500   0.1989175     -21.377832      0.29827592    -21.079556      7.0194314e-05  0.00031766378  2.2616624e-05  512            77.5           77.5           0.00013682491  3075200      
      4600   0.2251154     -21.376948      0.33755956    -21.039389      0.00021285325  0.00015951595  0.00019004661  512            79             79             0.00018747194  3195392      
      4700   0.20736798    -21.377444      0.31094738    -21.066496      0.00034076504  0.00021989922  0.0001548388   512            80.5           80.5           0.00023850102  3317888      
      4800   0.17927212    -21.378039      0.26881776    -21.109221      0.00021615852  0.00016221084  0.00018374237  512            82             82             0.00018737058  3442688      
      4900   0.18446234    -21.377658      0.27660047    -21.101058      0.00037791936  9.7044175e-05  0.00016853847  512            83.5           83.5           0.00021450067  3569792      
      5000   0.21524449    -21.375794      0.32275818    -21.053036      0.00031106431  0.00022990645  0.00010862515  512            85             85             0.00021653197  3699200      
      5100   0.22171349    -21.376006      0.33245841    -21.043548      0.0002137297   9.6600805e-05  0.00018385959  512            86.5           86.5           0.00016473003  3830912      
      5200   0.19122309    -21.376547      0.28673819    -21.089808      0.00016474283  0.00025018755  0.00011783752  512            88             88             0.0001775893   3964928      
      5300   0.17704568    -21.376435      0.26547922    -21.110956      0.00013960044  0.00011340241  0.00014060166  512            89.5           89.5           0.00013120151  4101248      
      5400   0.19906371    -21.375675      0.29849517    -21.07718       3.2929513e-05  0.00010933446  9.806386e-05   512            91             91             8.0109277e-05  4239872      
      5500   0.22457253    -21.374497      0.33674553    -21.037752      5.1239056e-05  0.00024659877  0.00018582838  512            92.5           92.5           0.00016122207  4380800      
      5600   0.2071888     -21.374561      0.31067869    -21.063882      3.2595723e-05  0.00019306894  0.00017749576  512            94             94             0.00013438681  4524032      
      5700   0.18013214    -21.375787      0.27010735    -21.10568       3.0657587e-05  0.00010004565  0.00013673829  512            95.5           95.5           8.9147177e-05  4669568      
      5800   0.18471686    -21.375285      0.27698213    -21.098303      0.00013196739  4.8401534e-05  4.1644529e-06  512            97             97             6.1511125e-05  4817408      
      5900   0.21505752    -21.374269      0.3224778     -21.051791      0.00020968908  4.2304026e-05  0.00010452763  512            98.5           98.5           0.00011884024  4967552      
      6000   0.22074308    -21.374058      0.33100328    -21.043055      0.00023888877  0.00011210106  8.2725929e-05  512            100            100            0.00014457192  5120000      
      6100   0.19121631    -21.374609      0.28672802    -21.087881      0.00017908039  9.3963184e-05  0.00011231418  512            101.5          101.5          0.00012845258  5274752      
      6200   0.17802687    -21.374941      0.26695051    -21.107991      0.00017720799  5.6670284e-05  0.0001252467   512            103            103            0.00011970832  5431808      
      6300   0.19901514    -21.373657      0.29842233    -21.075235      0.00012891065  8.6904607e-05 -1.1226221e-05  512            104.5          104.5          6.8196347e-05  5591168      
      6400   0.22381085    -21.372984      0.33560339    -21.03738       0.00010513005 -2.3371643e-05  4.3673731e-05  512            106            106            4.1810712e-05  5752832      
      6500   0.20684894    -21.372306      0.31016908    -21.062137     -5.4402212e-05  7.053346e-05  -9.9152309e-06  512            107.5          107.5          2.0720058e-06  5916800      
      6600   0.18080733    -21.373199      0.2711198     -21.102079     -0.00011819738  8.7158954e-05  3.8971048e-05  512            109            109            2.6442068e-06  6083072      
      6700   0.18539984    -21.372723      0.27800625    -21.094717     -7.0819176e-05  7.4990021e-05  5.34786e-05    512            110.5          110.5          1.9216482e-05  6251648      
      6800   0.21419322    -21.371351      0.3211818     -21.05017       1.371096e-06   0.00010751139  7.7323174e-05  512            112            112            6.2068555e-05  6422528      
      6900   0.21975227    -21.371346      0.32951757    -21.041829      6.7196592e-05  6.5300104e-05  9.6488532e-05  512            113.5          113.5          7.6328409e-05  6595712      
      7000   0.19167203    -21.372227      0.28741136    -21.084816      0.00012341539  8.7873048e-05  3.4680017e-05  512            115            115            8.1989486e-05  6771200      
      7100   0.17898098    -21.372889      0.26838119    -21.104508      0.00016450748  7.3763306e-05  5.3816291e-05  512            116.5          116.5          9.736236e-05   6948992      
      7200   0.19888911    -21.371285      0.29823334    -21.073051      0.000158968    7.6506732e-05  6.4752223e-05  512            118            118            0.00010007565  7129088      
      7300   0.22217104    -21.370035      0.33314451    -21.036891      0.00015922098  6.3099972e-05  3.2775384e-05  512            119.5          119.5          8.5032112e-05  7311488      
      7400   0.20687436    -21.370319      0.31020719    -21.060112      8.0719697e-05  3.5420078e-05  8.4588714e-07  512            121            121            3.8995221e-05  7496192      
      7500   0.18166781    -21.37112       0.27241009    -21.09871      -9.6225599e-06  5.3792237e-05  0.00010475588  512            122.5          122.5          4.9641851e-05  7683200      
      7600   0.18582338    -21.370739      0.27864135    -21.092098     -2.775416e-06   8.6740226e-05  2.0518392e-05  512            124            124            3.4827734e-05  7872512      
      7700   0.21367903    -21.369612      0.32041077    -21.049201      6.9279296e-06  7.3614073e-05  7.3703498e-05  512            125.5          125.5          5.1415167e-05  8064128      
      7800   0.21947697    -21.368776      0.32910475    -21.039671     -5.8875982e-05  9.1740174e-05  7.4640364e-05  512            127            127            3.5834852e-05  8258048      
      7900   0.19314587    -21.370416      0.28962139    -21.080794      1.481882e-05   4.9431366e-05  3.8883263e-05  512            128.5          128.5          3.4377816e-05  8454272      
      8000   0.17968224    -21.370916      0.26943273    -21.101483      4.7346207e-05 -1.7781024e-06  3.6862934e-05  512            130            130            2.7477013e-05  8652800      
      8100   0.19798601    -21.369308      0.29687916    -21.072429      0.00010525827  8.3587237e-05  6.9289785e-06  512            131.5          131.5          6.5258161e-05  8853632      
      8200   0.22134463    -21.368061      0.33190531    -21.036156      0.0001098632   3.0059013e-05  5.6734579e-05  512            133            133            6.5552265e-05  9056768      
      8300   0.20810249    -21.368686      0.31204878    -21.056638      8.6987121e-05  9.5231397e-05  4.3925412e-06  512            134.5          134.5          6.2203686e-05  9262208      
      8400   0.1827501     -21.36942       0.27403298    -21.095387      7.7495717e-05  2.2778392e-05  2.882143e-05   512            136            136            4.3031846e-05  9469952      
      8500   0.18514419    -21.368829      0.2776229     -21.091206      1.7967649e-05  5.9978476e-05 -1.6432037e-05  512            137.5          137.5          2.0504696e-05  9680000      
      8600   0.2122243     -21.367645      0.3182294     -21.049415      2.2820223e-05  5.8180275e-05  3.5066777e-05  512            139            139            3.8689092e-05  9892352      
      8700   0.21953936    -21.366408      0.32919832    -21.03721      -1.394114e-06   5.6601434e-05  7.0582457e-05  512            140.5          140.5          4.1929926e-05  10107008     
      8800   0.19417834    -21.367464      0.29116958    -21.076295     -5.597298e-05   6.6012034e-05  5.7330819e-05  512            142            142            2.2456624e-05  10323968     
      8900   0.18044941    -21.368533      0.2705831     -21.09795       8.3539819e-06  3.0124781e-05  4.8572352e-05  512            143.5          143.5          2.9017038e-05  10543232     
      9000   0.1969601     -21.367105      0.29534081    -21.071764      2.3860654e-05  4.268198e-05   1.8579798e-05  512            145            145            2.8374144e-05  10764800     
      9100   0.22019503    -21.366013      0.33018148    -21.035831      6.7566338e-05  7.0112833e-05  4.5377748e-05  512            146.5          146.5          6.1018973e-05  10988672     
      9200   0.20858495    -21.36597       0.31277223    -21.053198      8.5900286e-05  5.0507438e-05  6.6488754e-05  512            148            148            6.7632159e-05  11214848     
      9300   0.18402688    -21.367288      0.2759475     -21.09134       8.3527814e-05  7.3401553e-05  1.0265574e-05  512            149.5          149.5          5.5731647e-05  11443328     
      9400   0.18518128    -21.36712       0.27767852    -21.089442      2.1622857e-05  3.9450813e-06  6.5734493e-05  512            151            151            3.0434144e-05  11674112     
      9500   0.20992922    -21.364842      0.31478795    -21.050054      2.7408777e-05  9.5776966e-05  2.1141601e-05  512            152.5          152.5          4.8109115e-05  11907200     
      9600   0.21883571    -21.363944      0.32814319    -21.035801      5.54342e-06    2.1925047e-05  4.2018358e-05  512            154            154            2.3162275e-05  12142592     
      9700   0.19597566    -21.36541       0.29386465    -21.071545     -3.2106173e-06  8.3787551e-05  9.4723925e-06  512            155.5          155.5          3.0016442e-05  12380288     
      9800   0.18099807    -21.366286      0.27140581    -21.09488       1.0944358e-05  6.0055395e-05  4.1476604e-05  512            157            157            3.7492119e-05  12620288     
      9900   0.19547199    -21.365045      0.2931094     -21.071935      3.0693119e-05  7.1600812e-05  8.5907992e-05  512            158.5          158.5          6.2733974e-05  12862592     
     10000   0.21886904    -21.363848      0.32819317    -21.035654      7.0102909e-05  7.2236294e-05  6.6497917e-05  512            160            160            6.9612373e-05  13107200     
Loop time of 3.95774 on 1 procs for 10000 steps with 2974 atoms

Performance: 218306.590 tau/day, 2526.697 timesteps/s, 7.514 Matom-step/s
94.8% CPU use with 1 MPI tasks x 1 OpenMP threads

MPI task timing breakdown:
Section |  min time  |  avg time  |  max time  |%varavg| %total
---------------------------------------------------------------
Pair    | 2.2303     | 2.2303     | 2.2303     |   0.0 | 56.35
Neigh   | 1.0046     | 1.0046     | 1.0046     |   0.0 | 25.38
Comm    | 0.087683   | 0.087683   | 0.087683   |   0.0 |  2.22
Output  | 0.010413   | 0.010413   | 0.010413   |   0.0 |  0.26
Modify  | 0.51211    | 0.51211    | 0.51211    |   0.0 | 12.94
Other   |            | 0.1127     |            |       |  2.85

Nlocal:           2974 ave        2974 max        2974 min
Histogram: 1 0 0 0 0 0 0 0 0 0
Nghost:            113 ave         113 max         113 min
Histogram: 1 0 0 0 0 0 0 0 0 0
Neighs:          20600 ave       20600 max       20600 min
Histogram: 1 0 0 0 0 0 0 0 0 0

Total # of neighbors = 20600
Ave neighs/atom = 6.926698
Neighbor list builds = 576
Dangerous builds = 0
############deform to x axis##########################################################
unfix           2
variable        lengthx equal 50*${nrepeat}/4.0
variable        lengthx equal 50*16/4.0
fix             2 all deform 1 x final 0 ${lengthx} units box
fix             2 all deform 1 x final 0 200 units box
run             10000#test!0
Generated 0 of 36 mixed pair_coeff terms from geometric mixing rule
Per MPI rank memory allocation (min/avg/max) = 19.53 | 19.53 | 19.53 Mbytes
   Step          Temp          PotEng         KinEng         TotEng          Pxx            Pyy            Pzz             Lx             Ly             Lz           Press          Volume    
     10000   0.21886904    -21.363866      0.32819317    -21.035673      6.6217118e-05  5.4599043e-05  4.7446508e-05  512            160            160            5.6087556e-05  13107200     
     10100   0.2101649     -21.359921      0.31514135    -21.04478       0.00045415249  1.7952389e-05  1.3787357e-05  508.88         160            160            0.00016196408  13027328     
     10200   0.18880632    -21.354759      0.28311425    -21.071645      0.00068757983  1.689329e-05   3.7812947e-06  505.76         160            160            0.00023608481  12947456     
     10300   0.19284797    -21.360807      0.28917469    -21.071633      0.00040116681  1.6374878e-05 -1.8571239e-06  502.64         160            160            0.00013856152  12867584     
     10400   0.19251288    -21.355046      0.28867222    -21.066374     -0.00034512259 -5.6936264e-06  2.3990373e-06  499.52         160            160           -0.00011613906  12787712     
     10500   0.20003421    -21.350269      0.29995043    -21.050319     -0.00020564024  3.5709244e-05  1.0811589e-05  496.4          160            160           -5.3039801e-05  12707840     
     10600   0.21961529    -21.352632      0.32931217    -21.02332       0.00039590779  4.5610081e-05  4.6578811e-05  493.28         160            160            0.0001626989   12627968     
     10700   0.20884329    -21.352958      0.31315961    -21.039799      0.00045465281  2.8151391e-05  5.6819798e-05  490.16         160            160            0.00017987467  12548096     
     10800   0.18152884    -21.354664      0.2722017     -21.082463      8.2052489e-05  3.6348712e-05  4.3492578e-06  487.04         160            160            4.091682e-05   12468224     
     10900   0.18003694    -21.351845      0.26996461    -21.08188       9.9544313e-05  1.9631513e-05  3.0175222e-05  483.92         160            160            4.9783683e-05  12388352     
     11000   0.21546555    -21.353219      0.32308965    -21.03013       0.00024747302  4.2041977e-05  8.5011405e-05  480.8          160            160            0.00012484213  12308480     
     11100   0.22557057    -21.349705      0.33824209    -21.011463      0.00020312743  7.6726432e-05  2.5327069e-05  477.68         160            160            0.00010172698  12228608     
     11200   0.19142476    -21.350532      0.28704058    -21.063492      0.00017152543  2.1919259e-05  4.2970976e-05  474.56         160            160            7.8805221e-05  12148736     
     11300   0.17411453    -21.354288      0.26108397    -21.093204      5.4330025e-05  6.498379e-06   4.727926e-07   471.44         160            160            2.0433732e-05  12068864     
     11400   0.1945379     -21.352333      0.29170874    -21.060624      0.00021371145  3.2161902e-05  4.0467933e-05  468.32         160            160            9.5447095e-05  11988992     
     11500   0.22558725    -21.34917       0.3382671     -21.010903      6.9195495e-05  8.392866e-05   4.93734e-05    465.2          160            160            6.7499185e-05  11909120     
     11600   0.21121222    -21.346998      0.31671181    -21.030286      0.00012845166  2.034325e-05   5.4687112e-05  462.08         160            160            6.782734e-05   11829248     
     11700   0.1852269     -21.351095      0.27774693    -21.073348      0.00027370902  3.5161868e-05  1.8274544e-05  458.96         160            160            0.00010904848  11749376     
     11800   0.18237176    -21.350801      0.27346566    -21.077335      0.00010194525  3.2951325e-05  3.207035e-05   455.84         160            160            5.5655642e-05  11669504     
     11900   0.20594579    -21.347538      0.30881481    -21.038723      0.00012847471  1.6477801e-05 -6.5740356e-06  452.72         160            160            4.6126157e-05  11589632     
     12000   0.22136276    -21.34341       0.33193249    -21.011478      0.00018318326  1.6122803e-05  2.5499895e-05  449.6          160            160            7.4935319e-05  11509760     
     12100   0.20391904    -21.343959      0.30577571    -21.038183      0.00023351569  4.1836783e-05 -6.3480356e-07  446.48         160            160            9.1572555e-05  11429888     
     12200   0.18277178    -21.345404      0.27406548    -21.071339      0.00017484285  3.0940048e-06 -2.8416556e-06  443.36         160            160            5.8365067e-05  11350016     
     12300   0.18883378    -21.346197      0.28315543    -21.063042      0.00018800568 -5.5726967e-06  1.776347e-05   440.24         160            160            6.6732151e-05  11270144     
     12400   0.21179561    -21.341981      0.31758659    -21.024394      0.000185438    8.4156487e-05  5.6602019e-05  437.12         160            160            0.00010873217  11190272     
     12500   0.21610124    -21.340825      0.32404287    -21.016782      0.00018415177  2.8978726e-05  5.6800628e-05  434            160            160            8.997704e-05   11110400     
     12600   0.1942905     -21.345777      0.29133776    -21.054439      0.00018164764  7.6438273e-05  2.3434713e-05  430.88         160            160            9.384021e-05   11030528     
     12700   0.1811561     -21.344624      0.27164278    -21.072981      0.00018816072  1.4100592e-05  3.3485075e-05  427.76         160            160            7.858213e-05   10950656     
     12800   0.19714552    -21.341908      0.29561884    -21.046289      0.00011443334  3.2740697e-05  1.1625733e-05  424.64         160            160            5.2933256e-05  10870784     
     12900   0.21799134    -21.339867      0.32687706    -21.01299       0.00015150685  4.870905e-05   9.8781063e-06  421.52         160            160            7.0031336e-05  10790912     
     13000   0.21043087    -21.341625      0.31554017    -21.026085      0.00011243311  6.0231349e-05  8.0200999e-05  418.4          160            160            8.4288488e-05  10711040     
     13100   0.18680872    -21.343357      0.28011886    -21.063238      0.00010738752  5.6436213e-05  6.9180598e-05  415.28         160            160            7.766811e-05   10631168     
     13200   0.1833998     -21.342809      0.27500719    -21.067802      0.00010057885  5.0149016e-05  3.4448867e-05  412.16         160            160            6.1725576e-05  10551296     
     13300   0.20659191    -21.342231      0.30978367    -21.032447      6.9990837e-05  1.1096234e-05  3.2128011e-05  409.04         160            160            3.773836e-05   10471424     
     13400   0.21920783    -21.339572      0.32870119    -21.010871      0.00014551609  5.9546138e-05 -9.573005e-06   405.92         160            160            6.5163074e-05  10391552     
     13500   0.20050264    -21.341103      0.30065283    -21.04045       6.2033392e-05 -3.4382734e-05 -6.90706e-06    402.8          160            160            6.9145328e-06  10311680     
     13600   0.1828454     -21.344287      0.27417587    -21.070111      0.000128478    5.480715e-06   2.7271395e-05  399.68         160            160            5.3743371e-05  10231808     
     13700   0.19063017    -21.344301      0.28584911    -21.058452      2.9209717e-05  1.7495291e-05 -5.3018235e-06  396.56         160            160            1.3801061e-05  10151936     
     13800   0.21370982    -21.341064      0.32045694    -21.020607      0.00018848951  5.4540725e-05  6.6019483e-05  393.44         160            160            0.00010301657  10072064     
     13900   0.21431876    -21.338115      0.32137004    -21.016745      3.1983576e-05 -2.1014108e-05  1.9278632e-05  390.32         160            160            1.00827e-05    9992192      
     14000   0.19202243    -21.340177      0.2879368     -21.05224       0.00015352157  6.7041163e-05  1.3042849e-05  387.2          160            160            7.7868527e-05  9912320      
     14100   0.18431544    -21.340903      0.2763802     -21.064523      0.00015742528  5.1266608e-05  3.3219062e-05  384.08         160            160            8.0636982e-05  9832448      
     14200   0.19738853    -21.340339      0.29598324    -21.044356      1.904832e-06   1.7672881e-05  2.4962066e-05  380.96         160            160            1.4846593e-05  9752576      
     14300   0.21334305    -21.337765      0.31990697    -21.017858      8.6494671e-05  0.00011712449  6.3583e-05     377.84         160            160            8.9067386e-05  9672704      
     14400   0.20871263    -21.340628      0.31296367    -21.027665      5.8403906e-05  8.4302889e-05  5.8254992e-05  374.72         160            160            6.6987262e-05  9592832      
     14500   0.18970305    -21.340748      0.28445889    -21.056289      0.0001176504   6.2336994e-05  3.1990773e-05  371.6          160            160            7.0659391e-05  9512960      
     14600   0.1869962     -21.34036       0.28039998    -21.05996       0.00011687562  6.6020637e-06  2.6522128e-05  368.48         160            160            4.9999939e-05  9433088      
     14700   0.20509282    -21.340691      0.30753579    -21.033155      0.00010523906  3.2505909e-05  4.4466198e-05  365.36         160            160            6.0737056e-05  9353216      
     14800   0.21218773    -21.333936      0.31817458    -21.015762      7.3518777e-05  1.3832126e-05 -9.9625078e-06  362.24         160            160            2.5796132e-05  9273344      
     14900   0.20273667    -21.33946       0.30400276    -21.035457      0.00010004302  6.1277504e-05  3.2067577e-05  359.12         160            160            6.4462699e-05  9193472      
     15000   0.18608777    -21.339639      0.2790378     -21.060601      0.00015848885  2.2133765e-05 -1.0539113e-06  356            160            160            5.9856234e-05  9113600      
     15100   0.19116985    -21.340503      0.28665835    -21.053844      2.4351193e-05 -3.42859e-06   -2.446731e-05   352.88         160            160           -1.1815688e-06  9033728      
     15200   0.20796143    -21.337966      0.31183725    -21.026129      7.6661768e-05 -1.5944984e-05  1.5587485e-05  349.76         160            160            2.5434756e-05  8953856      
     15300   0.21262152    -21.335404      0.31882504    -21.016579      7.3456763e-05  8.1604282e-06  3.3432241e-05  346.64         160            160            3.8349811e-05  8873984      
     15400   0.19864425    -21.338982      0.29786619    -21.041116      6.9305492e-05  4.3617663e-05  3.5701878e-05  343.52         160            160            4.9541677e-05  8794112      
     15500   0.18852335    -21.342278      0.28268994    -21.059588      0.00014081015 -8.0958883e-06  8.7746902e-06  340.4          160            160            4.7162984e-05  8714240      
     15600   0.19455232    -21.339269      0.29173035    -21.047538     -1.1312058e-05  3.3207349e-05 -2.5672085e-05  337.28         160            160           -1.2589314e-06  8634368      
     15700   0.20939793    -21.335656      0.31399128    -21.021664      7.9802842e-06  1.4287048e-05 -4.7274038e-06  334.16         160            160            5.8466429e-06  8554496      
     15800   0.2111151     -21.335639      0.31656617    -21.019072      6.4367361e-05  3.1770252e-05 -1.1896106e-05  331.04         160            160            2.8080502e-05  8474624      
     15900   0.19478138    -21.338542      0.29207383    -21.046468      6.1771735e-05  2.6635019e-05  6.2370439e-05  327.92         160            160            5.0259065e-05  8394752      
     16000   0.18742957    -21.33983       0.28104981    -21.05878       4.9036411e-05  6.3784298e-05  7.5987359e-05  324.8          160            160            6.2936023e-05  8314880      
     16100   0.19701619    -21.337067      0.29542492    -21.041642      6.1013193e-05  1.530878e-05   9.6808312e-05  321.68         160            160            5.7710095e-05  8235008      
     16200   0.21309083    -21.336045      0.31952877    -21.016516      3.0231078e-05  2.7818801e-05  4.7177806e-05  318.56         160            160            3.5075895e-05  8155136      
     16300   0.20779991    -21.33693       0.31159506    -21.025335      0.00012184535  0.00010317521  3.7437719e-05  315.44         160            160            8.7486094e-05  8075264      
     16400   0.19046387    -21.338448      0.28559975    -21.052848      9.6354634e-05  9.6724662e-06  5.482546e-05   312.32         160            160            5.361752e-05   7995392      
     16500   0.18857812    -21.337834      0.28277207    -21.055062      0.00018292872  8.5803712e-05  2.2071634e-05  309.2          160            160            9.693469e-05   7915520      
     16600   0.20331808    -21.333414      0.30487457    -21.02854       8.3212481e-05  4.7196459e-05  9.0139416e-05  306.08         160            160            7.3516119e-05  7835648      
     16700   0.21360642    -21.333475      0.32030189    -21.013173      0.00016288403  4.5701983e-05  1.8087653e-05  302.96         160            160            7.5557887e-05  7755776      
     16800   0.20019653    -21.33488       0.30019382    -21.034686      4.2387563e-05  7.8469858e-05  2.2917643e-05  299.84         160            160            4.7925021e-05  7675904      
     16900   0.18734605    -21.337432      0.28092459    -21.056507      0.00010203078  4.6648054e-05  8.3371689e-05  296.72         160            160            7.7350176e-05  7596032      
     17000   0.19275406    -21.335431      0.28903387    -21.046397      0.00018492778  0.00015475468  0.00010468726  293.6          160            160            0.00014812324  7516160      
     17100   0.20972677    -21.332368      0.31448437    -21.017884      3.3604442e-05  5.7233687e-05  9.3214378e-05  290.48         160            160            6.1350836e-05  7436288      
     17200   0.2124688     -21.333681      0.31859604    -21.015085      0.00021227231  0.00015122885  9.9262332e-05  287.36         160            160            0.0001542545   7356416      
     17300   0.19323502    -21.334957      0.28975506    -21.045202      9.0835239e-05  4.5983525e-05  0.00011363287  284.24         160            160            8.3483878e-05  7276544      
     17400   0.18519782    -21.333721      0.27770333    -21.056018      0.0002036539   3.2696781e-05 -4.9481386e-06  281.12         160            160            7.713418e-05   7196672      
     17500   0.20265586    -21.334685      0.30388157    -21.030803      9.3358495e-05  5.6546825e-05  5.2511374e-05  278            160            160            6.7472232e-05  7116800      
     17600   0.21468183    -21.331946      0.32191447    -21.010032      0.00011733876  6.3131292e-05  0.00011485558  274.88         160            160            9.8441876e-05  7036928      
     17700   0.20217684    -21.332834      0.30316329    -21.02967       0.00013915727  6.8485186e-05  1.379046e-05   271.76         160            160            7.3810974e-05  6957056      
     17800   0.18867333    -21.336792      0.28291484    -21.053877      0.00020124146  0.00015397297  7.5599882e-05  268.64         160            160            0.00014360477  6877184      
     17900   0.19287524    -21.337174      0.28921558    -21.047958      0.00016307252  8.397565e-05   0.00015808758  265.52         160            160            0.00013504525  6797312      
     18000   0.20785761    -21.333902      0.31168158    -21.02222       6.2990833e-05  6.7178165e-05  6.3724505e-05  262.4          160            160            6.4631168e-05  6717440      
     18100   0.21252588    -21.333939      0.31868163    -21.015257      7.6915794e-05  8.7135019e-05  3.7946524e-05  259.28         160            160            6.7332446e-05  6637568      
     18200   0.19617468    -21.333749      0.29416308    -21.039586      9.2498338e-05  4.7329597e-05  9.8238648e-05  256.16         160            160            7.9355528e-05  6557696      
     18300   0.18818565    -21.334672      0.28218356    -21.052489      0.00014726195  0.00015995976  5.6001589e-05  253.04         160            160            0.00012107444  6477824      
     18400   0.19841304    -21.333717      0.29751948    -21.036198      0.00015918287  7.3435638e-05  5.2660533e-05  249.92         160            160            9.5093015e-05  6397952      
     18500   0.21004159    -21.331148      0.31495645    -21.016191      2.1333956e-05  2.9797821e-05 -2.9934781e-05  246.8          160            160            7.0656653e-06  6318080      
     18600   0.20689813    -21.332054      0.31024284    -21.021811      0.000137084   -5.9519873e-05 -8.8275487e-06  243.68         160            160            2.2912194e-05  6238208      
     18700   0.19361063    -21.334742      0.29031829    -21.044424      0.0001218834   6.0120186e-05 -6.7334504e-05  240.56         160            160            3.8223028e-05  6158336      
     18800   0.1890419     -21.334948      0.2834675     -21.05148       0.00011361218 -5.7242039e-05 -3.7192857e-05  237.44         160            160            6.3924283e-06  6078464      
     18900   0.2011004     -21.33281       0.30154918    -21.031261      0.00015700424  0.0001472112   3.2415789e-06  234.32         160            160            0.00010248567  5998592      
     19000   0.21062572    -21.329385      0.31583234    -21.013553      0.00014895692  0.00012039358  0.00014907954  231.2          160            160            0.00013947668  5918720      
     19100   0.2034772     -21.332609      0.30511317    -21.027496      0.00011982955  1.2084857e-05  2.0481764e-05  228.08         160            160            5.0798722e-05  5838848      
     19200   0.18928212    -21.33365       0.28382771    -21.049822      0.00012959498  6.1434386e-05  0.0001168949   224.96         160            160            0.00010264142  5758976      
     19300   0.19315739    -21.335267      0.28963867    -21.045629      0.0001333539   7.7528059e-05  2.2620925e-05  221.84         160            160            7.7834296e-05  5679104      
     19400   0.20543935    -21.330323      0.3080554     -21.022268      7.8239033e-05 -7.3720203e-05  4.749107e-06   218.72         160            160            3.0893123e-06  5599232      
     19500   0.211124      -21.329464      0.31657952    -21.012884      0.00026265925  0.00011819466 -3.3121601e-05  215.6          160            160            0.00011591077  5519360      
     19600   0.19822609    -21.331484      0.29723916    -21.034244      0.00023974807  0.00013039725  9.4179708e-05  212.48         160            160            0.00015477501  5439488      
     19700   0.18970427    -21.33449       0.28446072    -21.050029      0.00017912886  0.00010189718  7.782315e-05   209.36         160            160            0.0001196164   5359616      
     19800   0.19631859    -21.33472       0.29437887    -21.040341      0.00020656167  2.5937148e-05  0.00014670458  206.24         160            160            0.00012640113  5279744      
     19900   0.20889949    -21.332821      0.31324387    -21.019577      0.00015116166  8.4744247e-05  4.3581155e-05  203.12         160            160            9.3162355e-05  5199872      
     20000   0.20767983    -21.33246       0.311415      -21.021045      0.00010106069 -2.6159736e-05  3.4360721e-05  200            160            160            3.6420558e-05  5120000      
Loop time of 4.86518 on 1 procs for 10000 steps with 2974 atoms

Performance: 177588.410 tau/day, 2055.421 timesteps/s, 6.113 Matom-step/s
99.9% CPU use with 1 MPI tasks x 1 OpenMP threads

MPI task timing breakdown:
Section |  min time  |  avg time  |  max time  |%varavg| %total
---------------------------------------------------------------
Pair    | 2.1825     | 2.1825     | 2.1825     |   0.0 | 44.86
Neigh   | 2.0191     | 2.0191     | 2.0191     |   0.0 | 41.50
Comm    | 0.068956   | 0.068956   | 0.068956   |   0.0 |  1.42
Output  | 0.010457   | 0.010457   | 0.010457   |   0.0 |  0.21
Modify  | 0.48615    | 0.48615    | 0.48615    |   0.0 |  9.99
Other   |            | 0.09799    |            |       |  2.01

Nlocal:           2974 ave        2974 max        2974 min
Histogram: 1 0 0 0 0 0 0 0 0 0
Nghost:            223 ave         223 max         223 min
Histogram: 1 0 0 0 0 0 0 0 0 0
Neighs:          21538 ave       21538 max       21538 min
Histogram: 1 0 0 0 0 0 0 0 0 0

Total # of neighbors = 21538
Ave neighs/atom = 7.2420982
Neighbor list builds = 909
Dangerous builds = 0
unfix           2
#############make the simulation box cubic############################################
variable        newsize equal (lx*ly*lz)^(1./3.)

fix             2 all deform 1 x final 0 ${newsize} y final 0 ${newsize} z final 0 ${newsize} units box
fix             2 all deform 1 x final 0 172.354775202551 y final 0 ${newsize} z final 0 ${newsize} units box
fix             2 all deform 1 x final 0 172.354775202551 y final 0 172.354775202551 z final 0 ${newsize} units box
fix             2 all deform 1 x final 0 172.354775202551 y final 0 172.354775202551 z final 0 172.354775202551 units box
run             10000#test!0
Generated 0 of 36 mixed pair_coeff terms from geometric mixing rule
Per MPI rank memory allocation (min/avg/max) = 19.53 | 19.53 | 19.53 Mbytes
   Step          Temp          PotEng         KinEng         TotEng          Pxx            Pyy            Pzz             Lx             Ly             Lz           Press          Volume    
     20000   0.20767983    -21.332472      0.311415      -21.021057      0.00013884007 -1.2544088e-05  4.9209114e-05  200            160            160            5.8501698e-05  5120000      
     20100   0.19489974    -21.330498      0.29225132    -21.038247      2.1275215e-05  7.6396825e-05  1.96251e-05    199.72355      160.12355      160.12355      3.9099047e-05  5120822      
     20200   0.1941666     -21.334261      0.29115197    -21.04311       0.00023894506  0.0002335456   0.00022236036  199.4471       160.2471       160.2471       0.00023161701  5121628.2    
     20300   0.19950614    -21.331424      0.29915859    -21.032266      1.7360263e-05  7.2096973e-05 -1.2234649e-05  199.17064      160.37064      160.37064      2.5740862e-05  5122418.6    
     20400   0.20786809    -21.331792      0.3116973     -21.020094      0.00014625486  9.6838305e-05  9.383423e-05   198.89419      160.49419      160.49419      0.00011230913  5123193.2    
     20500   0.20244837    -21.330551      0.30357045    -21.026981      0.0001812855   0.00010099353  2.4271956e-05  198.61774      160.61774      160.61774      0.00010218366  5123951.9    
     20600   0.19368755    -21.331516      0.29043364    -21.041082      6.5300838e-05  5.7582038e-05  3.0440797e-05  198.34129      160.74129      160.74129      5.1107891e-05  5124694.8    
     20700   0.19435754    -21.330944      0.29143828    -21.039506      0.00016674507  8.2815602e-05  0.00017088661  198.06483      160.86483      160.86483      0.00014014909  5125421.7    
     20800   0.2033353     -21.329543      0.3049004     -21.024643      0.00012051261  4.8842551e-05 -3.907451e-05   197.78838      160.98838      160.98838      4.3426883e-05  5126132.8    
     20900   0.20682199    -21.329174      0.31012867    -21.019045      0.00016494785  9.5121309e-05  0.00022004345  197.51193      161.11193      161.11193      0.00016003753  5126827.8    
     21000   0.19876922    -21.330019      0.29805357    -21.031965      0.00017490839  0.00011466268  5.1285014e-05  197.23548      161.23548      161.23548      0.0001136187   5127506.9    
     21100   0.19346081    -21.331862      0.29009364    -21.041769      7.4843671e-05  9.0474053e-05  4.8356019e-05  196.95903      161.35903      161.35903      7.1224581e-05  5128170      
     21200   0.19801266    -21.331012      0.29691911    -21.034093      0.00015449952  0.00011254677  1.418177e-05   196.68257      161.48257      161.48257      9.3742686e-05  5128817      
     21300   0.2057721     -21.328981      0.30855437    -21.020427      0.00020797723  5.9361471e-06  0.00012862472  196.40612      161.60612      161.60612      0.00011417936  5129448      
     21400   0.20474349    -21.328272      0.30701197    -21.02126       0.00012422416  0.00013907509  3.41382e-05    196.12967      161.72967      161.72967      9.9145819e-05  5130062.9    
     21500   0.19650955    -21.328128      0.29466521    -21.033463      0.00018661564 -9.7756088e-06  1.0298439e-05  195.85322      161.85322      161.85322      6.2379489e-05  5130661.7    
     21600   0.19390686    -21.328621      0.29076249    -21.037859      0.00029210264  5.9207587e-05  1.566476e-05   195.57676      161.97676      161.97676      0.000122325    5131244.3    
     21700   0.20049251    -21.328862      0.30063765    -21.028224      0.00016022804  0.0001325232  -7.1409538e-06  195.30031      162.10031      162.10031      9.5203431e-05  5131810.8    
     21800   0.20413834    -21.325294      0.30610454    -21.019189      0.00010384989 -1.2623068e-05  7.1008271e-06  195.02386      162.22386      162.22386      3.2775885e-05  5132361.1    
     21900   0.20207207    -21.327476      0.30300619    -21.02447       0.00020809802  7.8542432e-05 -2.9358144e-06  194.74741      162.34741      162.34741      9.4568214e-05  5132895.2    
     22000   0.19546654    -21.328453      0.29310123    -21.035352      0.00022066784  0.00013387463  0.00010701072  194.47096      162.47096      162.47096      0.00015385106  5133413.1    
     22100   0.19690596    -21.329715      0.29525962    -21.034455      0.00010723173  9.7638077e-05 -2.0197245e-05  194.1945       162.5945       162.5945       6.155752e-05   5133914.7    
     22200   0.20272001    -21.326494      0.30397777    -21.022517      0.00011980597  1.898141e-06   5.6954396e-05  193.91805      162.71805      162.71805      5.9552835e-05  5134400      
     22300   0.2049769     -21.32578       0.30736196    -21.018418      3.2838052e-05  2.4222843e-05 -9.450516e-05   193.6416       162.8416       162.8416      -1.2481422e-05  5134869      
     22400   0.19960607    -21.327514      0.29930843    -21.028205      0.00015560176  3.3201059e-05  8.4952894e-05  193.36515      162.96515      162.96515      9.1251903e-05  5135321.7    
     22500   0.19437443    -21.329029      0.29146361    -21.037565      7.3212247e-05 -0.00011663102 -8.8040631e-05  193.08869      163.08869      163.08869     -4.3819801e-05  5135758      
     22600   0.19732013    -21.327849      0.29588068    -21.031969      7.1420918e-05 -1.9176157e-05 -2.6460896e-05  192.81224      163.21224      163.21224      8.5946216e-06  5136178      
     22700   0.20463433    -21.326137      0.30684828    -21.019289      7.3521512e-05  4.4265587e-05 -9.9336977e-06  192.53579      163.33579      163.33579      3.5951134e-05  5136581.5    
     22800   0.20501536    -21.326983      0.30741963    -21.019563      0.00019478867  8.1765875e-05  1.9864058e-05  192.25934      163.45934      163.45934      9.8806201e-05  5136968.6    
     22900   0.19660848    -21.327871      0.29481355    -21.033058      5.4862055e-06 -1.3570065e-05 -4.2344556e-05  191.98288      163.58288      163.58288     -1.6809472e-05  5137339.2    
     23000   0.193935      -21.32869       0.29080469    -21.037886      0.00011626672  6.0974415e-05  0.00011284175  191.70643      163.70643      163.70643      9.6694295e-05  5137693.3    
     23100   0.20069966    -21.327515      0.30094826    -21.026566      0.00011569419  0.00010550042  2.2669252e-05  191.42998      163.82998      163.82998      8.1287957e-05  5138030.9    
     23200   0.20677502    -21.325509      0.31005824    -21.015451      7.8368384e-05  4.7051085e-05  5.7940408e-05  191.15353      163.95353      163.95353      6.1119959e-05  5138352      
     23300   0.20329833    -21.325279      0.30484496    -21.020434      0.00017484113  0.00012118495  0.00013407232  190.87708      164.07708      164.07708      0.00014336613  5138656.5    
     23400   0.19531133    -21.327008      0.29286848    -21.034139      0.00012814584  0.00017119416  0.0001461867   190.60062      164.20062      164.20062      0.0001485089   5138944.4    
     23500   0.19417425    -21.325737      0.29116345    -21.034573      0.00010496354  2.3742949e-05  5.4917621e-05  190.32417      164.32417      164.32417      6.1208038e-05  5139215.7    
     23600   0.20256072    -21.325412      0.30373892    -21.021674      0.00017465186  0.00014382236  0.00018608068  190.04772      164.44772      164.44772      0.00016818497  5139470.4    
     23700   0.2066427     -21.325381      0.30985983    -21.015521     -2.5457591e-06  3.429064e-05  -0.00019986813  189.77127      164.57127      164.57127     -5.6041084e-05  5139708.4    
     23800   0.20055349    -21.326255      0.30072908    -21.025526      7.2865852e-05  1.0572245e-05  5.5070797e-05  189.49481      164.69481      164.69481      4.6169631e-05  5139929.7    
     23900   0.19330634    -21.32596       0.28986201    -21.036098      0.00021790571  0.00014133391  3.9667825e-05  189.21836      164.81836      164.81836      0.00013296915  5140134.3    
     24000   0.1970131     -21.326164      0.29542028    -21.030744      0.00016686774  0.00010513251  0.00011166238  188.94191      164.94191      164.94191      0.00012788755  5140322.2    
     24100   0.20601094    -21.325996      0.30891251    -21.017084      0.00018791788  0.00013002966  5.7281496e-05  188.66546      165.06546      165.06546      0.00012507635  5140493.3    
     24200   0.2048399     -21.324792      0.30715653    -21.017636      0.00012687617  6.2948359e-05  0.00010694008  188.38901      165.18901      165.18901      9.8921537e-05  5140647.6    
     24300   0.19724241    -21.325798      0.29576413    -21.030034      7.0304658e-05  0.0002396774   8.2098024e-05  188.11255      165.31255      165.31255      0.00013069336  5140785.1    
     24400   0.19522669    -21.326058      0.29274157    -21.033316      0.00020848414  5.6526958e-05  0.00016264764  187.8361       165.4361       165.4361       0.00014255291  5140905.7    
     24500   0.19957664    -21.322087      0.29926431    -21.022823      8.8880482e-05  6.0367699e-05  0.00010128206  187.55965      165.55965      165.55965      8.3510082e-05  5141009.5    
     24600   0.20706799    -21.322143      0.31049755    -21.011645      0.00017170494  0.00022889495  0.00015057213  187.2832       165.6832       165.6832       0.00018372401  5141096.4    
     24700   0.20188601    -21.321345      0.3027272     -21.018618      0.00015525472  0.00010767511 -8.2994977e-08  187.00674      165.80674      165.80674      8.761561e-05   5141166.3    
     24800   0.19479242    -21.324529      0.29209039    -21.032439      6.9300666e-05  0.000136791    0.00010332618  186.73029      165.93029      165.93029      0.00010313928  5141219.3    
     24900   0.19521745    -21.326186      0.29272771    -21.033458      0.00012601527 -1.42702e-06    4.5802516e-05  186.45384      166.05384      166.05384      5.679692e-05   5141255.4    
     25000   0.20219284    -21.324337      0.30318728    -21.02115       0.00014484283  2.7941139e-05  3.9838398e-05  186.17739      166.17739      166.17739      7.0874122e-05  5141274.4    
     25100   0.20577537    -21.322043      0.30855926    -21.013483      0.00010534812  1.4563925e-05  7.4330387e-05  185.90094      166.30094      166.30094      6.4747479e-05  5141276.5    
     25200   0.19913963    -21.320289      0.29860901    -21.02168       0.00012900732  2.1029998e-06  2.7909117e-05  185.62448      166.42448      166.42448      5.3006481e-05  5141261.5    
     25300   0.19495194    -21.323866      0.29232959    -21.031536      0.00016329632 -9.5710821e-06  3.1746688e-05  185.34803      166.54803      166.54803      6.1823975e-05  5141229.4    
     25400   0.19740498    -21.325086      0.2960079     -21.029078      9.6397217e-05  4.7104385e-05  0.00014518089  185.07158      166.67158      166.67158      9.6227497e-05  5141180.2    
     25500   0.20362293    -21.323343      0.3053317     -21.018011      0.0001034811   9.0402404e-05  0.00014488049  184.79513      166.79513      166.79513      0.00011292133  5141113.9    
     25600   0.20657918    -21.324584      0.30976458    -21.014819      0.00012961513  3.6619891e-05  0.00011158037  184.51867      166.91867      166.91867      9.260513e-05   5141030.5    
     25700   0.19899058    -21.323018      0.2983855     -21.024633      0.00027513074  0.00011007622  3.0486689e-05  184.24222      167.04222      167.04222      0.00013856455  5140929.9    
     25800   0.19473685    -21.322855      0.29200706    -21.030848      8.4387085e-06  0.00016795373  0.00011445645  183.96577      167.16577      167.16577      9.694963e-05   5140812      
     25900   0.19872231    -21.321822      0.29798324    -21.023839      4.5380527e-05 -4.60673e-05   -2.3843176e-05  183.68932      167.28932      167.28932     -8.1766497e-06  5140677      
     26000   0.206081      -21.32212       0.30901756    -21.013102      4.6469405e-05 -2.7018112e-05  0.00010378917  183.41287      167.41287      167.41287      4.1080156e-05  5140524.7    
     26100   0.20258047    -21.319828      0.30376853    -21.016059      0.00021800791  0.00011718938  0.00014030678  183.13641      167.53641      167.53641      0.00015850136  5140355.2    
     26200   0.19512731    -21.321066      0.29259255    -21.028473      3.8930695e-05  7.9699665e-05 -4.2498046e-05  182.85996      167.65996      167.65996      2.5377438e-05  5140168.3    
     26300   0.19505471    -21.322078      0.29248369    -21.029594      0.00020146892  0.00015488487  0.00015005005  182.58351      167.78351      167.78351      0.00016880128  5139964.2    
     26400   0.20076463    -21.320459      0.30104568    -21.019414      0.0002394917   0.00013113996  7.0380221e-05  182.30706      167.90706      167.90706      0.00014700396  5139742.6    
     26500   0.20536875    -21.320591      0.30794954    -21.012642      5.1276066e-05  1.1917795e-05  0.00014630786  182.0306       168.0306       168.0306       6.9833907e-05  5139503.7    
     26600   0.20110491    -21.320178      0.30155593    -21.018622      0.00010024255  0.00012205871  4.0538639e-05  181.75415      168.15415      168.15415      8.7613298e-05  5139247.4    
     26700   0.19544397    -21.320901      0.29306738    -21.027834      0.00012509621  3.7444701e-05  5.7521004e-06  181.4777       168.2777       168.2777       5.6097671e-05  5138973.7    
     26800   0.1981775     -21.323531      0.2971663     -21.026365      6.7973138e-05  4.1625552e-05  7.9576456e-05  181.20125      168.40125      168.40125      6.3058382e-05  5138682.6    
     26900   0.20261417    -21.320777      0.30381907    -21.016958      0.00013557842  5.2363077e-05 -1.3439227e-07  180.92479      168.52479      168.52479      6.2602367e-05  5138373.9    
     27000   0.2034091     -21.317787      0.30501105    -21.012776      0.00011806817 -3.7867275e-05  5.2574275e-05  180.64834      168.64834      168.64834      4.4258391e-05  5138047.8    
     27100   0.20044162    -21.320006      0.30056133    -21.019444      3.2861598e-05 -2.1739539e-05  1.9161295e-05  180.37189      168.77189      168.77189      1.0094452e-05  5137704.1    
     27200   0.19806097    -21.322816      0.29699156    -21.025824      7.9243512e-05  0.00012131049  9.9088347e-05  180.09544      168.89544      168.89544      9.9880782e-05  5137342.9    
     27300   0.19821876    -21.320804      0.29722817    -21.023575      0.0002012573   0.00011861929  0.00010676371  179.81899      169.01899      169.01899      0.00014221343  5136964.1    
     27400   0.20171494    -21.318203      0.30247066    -21.015733      0.00021642803  6.7976693e-05  0.00023748375  179.54253      169.14253      169.14253      0.00017396282  5136567.7    
     27500   0.20391168    -21.318802      0.30576467    -21.013037      6.7459278e-05  0.00016392512 -1.5048019e-05  179.26608      169.26608      169.26608      7.2112126e-05  5136153.6    
     27600   0.20070809    -21.321351      0.30096091    -21.02039       0.00018344956  7.8426658e-05  0.00019194174  178.98963      169.38963      169.38963      0.00015127265  5135721.9    
     27700   0.19505866    -21.318506      0.2924896     -21.026017      0.00016745311  7.8960979e-05  0.00012564004  178.71318      169.51318      169.51318      0.00012401804  5135272.6    
     27800   0.20044077    -21.320437      0.30056005    -21.019877      0.00013487472 -1.7388686e-05 -1.9873557e-05  178.43672      169.63672      169.63672      3.2537492e-05  5134805.5    
     27900   0.2053748     -21.319177      0.30795862    -21.011218      0.00017857839  0.00010551346  0.0001078632   178.16027      169.76027      169.76027      0.00013065168  5134320.7    
     28000   0.20246922    -21.318269      0.30360172    -21.014667      6.6322971e-05 -6.3595642e-05 -6.5332826e-05  177.88382      169.88382      169.88382     -2.0868499e-05  5133818.2    
     28100   0.19551812    -21.316641      0.29317857    -21.023462      1.3098079e-06  6.5783914e-05  7.2957351e-05  177.60737      170.00737      170.00737      4.6683691e-05  5133297.9    
     28200   0.19668339    -21.318224      0.29492589    -21.023298      0.00016859704  0.00017600434  7.0464854e-05  177.33092      170.13092      170.13092      0.00013835541  5132759.7    
     28300   0.20108969    -21.317092      0.30153311    -21.015559      0.00018640805  9.3527048e-06  7.8330461e-05  177.05446      170.25446      170.25446      9.1363738e-05  5132203.8    
     28400   0.2039073     -21.316503      0.30575811    -21.010745      8.3305925e-05  6.8645265e-05  6.0110545e-05  176.77801      170.37801      170.37801      7.0687245e-05  5131630      
     28500   0.20121665    -21.316555      0.30172348    -21.014832      0.00018669847 -7.828061e-05   0.00012714616  176.50156      170.50156      170.50156      7.8521342e-05  5131038.3    
     28600   0.19766864    -21.31782       0.29640326    -21.021417      0.00015778627  0.0001395351   3.1736213e-05  176.22511      170.62511      170.62511      0.00010968586  5130428.7    
     28700   0.19779302    -21.317853      0.29658977    -21.021263      5.9501388e-05 -0.00012209752  0.00011926129  175.94865      170.74865      170.74865      1.8888385e-05  5129801.1    
     28800   0.2015162     -21.31642       0.30217266    -21.014247     -9.7234489e-06  7.6201873e-05 -8.2216612e-05  175.6722       170.8722       170.8722      -5.2460624e-06  5129155.7    
     28900   0.20271248    -21.314788      0.30396648    -21.010821      0.00017658866 -6.1301269e-05  1.9373052e-05  175.39575      170.99575      170.99575      4.4886813e-05  5128492.2    
     29000   0.19849296    -21.315029      0.29763933    -21.01739       5.1400218e-05  0.0001195664   5.6014441e-05  175.1193       171.1193       171.1193       7.5660354e-05  5127810.7    
     29100   0.19711923    -21.318265      0.29557943    -21.022686      0.00016171859 -6.6535065e-05 -2.3158435e-06  174.84285      171.24285      171.24285      3.0955894e-05  5127111.2    
     29200   0.19893579    -21.316947      0.29830335    -21.018644      0.00012678043  8.8299515e-05  9.0446832e-05  174.56639      171.36639      171.36639      0.00010184226  5126393.6    
     29300   0.20083455    -21.312701      0.30115053    -21.011551      0.00011711892  7.7047155e-05  7.0829319e-05  174.28994      171.48994      171.48994      8.8331798e-05  5125658      
     29400   0.20379456    -21.316942      0.30558905    -21.011353      0.00014322412  0.00022548498  7.9624433e-05  174.01349      171.61349      171.61349      0.00014944451  5124904.2    
     29500   0.19753676    -21.314127      0.2962055     -21.017921      0.00022226411  0.00017303434  0.000175868    173.73704      171.73704      171.73704      0.00019038882  5124132.3    
     29600   0.19573178    -21.314716      0.29349895    -21.021217      0.00013125826  0.00021387481  0.00020818422  173.46058      171.86058      171.86058      0.0001844391   5123342.3    
     29700   0.20044585    -21.317081      0.30056768    -21.016514      0.00013030984  0.0001808034   0.00012235232  173.18413      171.98413      171.98413      0.00014448852  5122534.1    
     29800   0.20240088    -21.314453      0.30349924    -21.010954      6.3847651e-05  5.4803586e-06 -2.1192484e-05  172.90768      172.10768      172.10768      1.6045175e-05  5121707.6    
     29900   0.20193822    -21.315586      0.30280548    -21.012781     -3.0439626e-05  3.9469632e-05  7.9050159e-05  172.63123      172.23123      172.23123      2.9360055e-05  5120862.9    
     30000   0.19797319    -21.315521      0.29685993    -21.018661      1.3073432e-05  1.237941e-05   6.7473532e-05  172.35478      172.35478      172.35478      3.0975458e-05  5120000      
Loop time of 3.14596 on 1 procs for 10000 steps with 2974 atoms

Performance: 274637.565 tau/day, 3178.676 timesteps/s, 9.453 Matom-step/s
99.9% CPU use with 1 MPI tasks x 1 OpenMP threads

MPI task timing breakdown:
Section |  min time  |  avg time  |  max time  |%varavg| %total
---------------------------------------------------------------
Pair    | 2.1854     | 2.1854     | 2.1854     |   0.0 | 69.47
Neigh   | 0.27189    | 0.27189    | 0.27189    |   0.0 |  8.64
Comm    | 0.043914   | 0.043914   | 0.043914   |   0.0 |  1.40
Output  | 0.010592   | 0.010592   | 0.010592   |   0.0 |  0.34
Modify  | 0.52527    | 0.52527    | 0.52527    |   0.0 | 16.70
Other   |            | 0.1089     |            |       |  3.46

Nlocal:           2974 ave        2974 max        2974 min
Histogram: 1 0 0 0 0 0 0 0 0 0
Nghost:            193 ave         193 max         193 min
Histogram: 1 0 0 0 0 0 0 0 0 0
Neighs:          20976 ave       20976 max       20976 min
Histogram: 1 0 0 0 0 0 0 0 0 0

Total # of neighbors = 20976
Ave neighs/atom = 7.0531271
Neighbor list builds = 137
Dangerous builds = 0
unfix           2
#############replicate the system
#Note that this system is much more dilute than the desired density of 1 unit per 1000 volume, by a factor of 320!
# Original system is 72 4 4
# Small test sample 4 1 1
#replicate       72 4 4   #replicate into 1152 chains
replicate		8 2 2
Replication is creating a 8x2x2 = 32 times larger system...
  orthogonal box = (0 0 0) to (1378.8382 344.70955 344.70955)
  1 by 1 by 1 MPI processor grid
  95168 atoms
  replicate CPU = 0.012 seconds
velocity        all create ${tf} 9936    #add velocity
velocity        all create 0.2 9936    


#############high temp relaxation##########################################
unfix           1
fix             1 all nvt temp ${tf} ${tf} 0.1
fix             1 all nvt temp 0.2 ${tf} 0.1
fix             1 all nvt temp 0.2 0.2 0.1
run             70000#test!0
Generated 0 of 36 mixed pair_coeff terms from geometric mixing rule
Per MPI rank memory allocation (min/avg/max) = 182.6 | 182.6 | 182.6 Mbytes
   Step          Temp          PotEng         KinEng         TotEng          Pxx            Pyy            Pzz             Lx             Ly             Lz           Press          Volume    
     30000   0.2           -21.315523      0.29999685    -21.015526     -1.4468397e-05  2.1335504e-05  9.197262e-05   1378.8382      344.70955      344.70955      3.2946576e-05  1.6384e+08   
     30100   0.18518188    -21.284828      0.2777699     -21.007058     -4.7629921e-05  6.1544498e-05  0.00014331844  1378.8382      344.70955      344.70955      5.2411005e-05  1.6384e+08   
     30200   0.19136977    -21.282933      0.28705164    -20.995882      7.3657734e-05  7.5943839e-06  4.4037691e-05  1378.8382      344.70955      344.70955      4.176327e-05   1.6384e+08   
     30300   0.19608511    -21.279778      0.29412457    -20.985653      5.6434162e-05  7.2702422e-05  7.8151393e-05  1378.8382      344.70955      344.70955      6.9095992e-05  1.6384e+08   
     30400   0.19957984    -21.277223      0.29936661    -20.977857      6.6647637e-06 -3.9775792e-05 -3.070457e-05   1378.8382      344.70955      344.70955     -2.1271866e-05  1.6384e+08   
     30500   0.20179147    -21.27588       0.30268402    -20.973196      9.4421826e-06  1.8287629e-05  2.9748489e-05  1378.8382      344.70955      344.70955      1.9159434e-05  1.6384e+08   
     30600   0.20160278    -21.276592      0.302401      -20.974191      9.737575e-05   5.7902176e-05  5.0920685e-05  1378.8382      344.70955      344.70955      6.873287e-05   1.6384e+08   
     30700   0.19898321    -21.276908      0.29847169    -20.978436      4.1021222e-05  4.4916682e-05  3.0300213e-05  1378.8382      344.70955      344.70955      3.8746039e-05  1.6384e+08   
     30800   0.19881599    -21.27777       0.29822085    -20.979549      7.3426838e-05  8.1192533e-05  8.2526921e-05  1378.8382      344.70955      344.70955      7.9048764e-05  1.6384e+08   
     30900   0.19930838    -21.276125      0.29895943    -20.977166      6.9631389e-05  8.1923926e-05  5.2041234e-05  1378.8382      344.70955      344.70955      6.7865516e-05  1.6384e+08   
     31000   0.20082157    -21.275569      0.30122918    -20.97434       3.5245095e-05  5.4822313e-05  5.972068e-05   1378.8382      344.70955      344.70955      4.9929363e-05  1.6384e+08   
     31100   0.2010221     -21.275739      0.30152997    -20.974209      8.6652553e-05  9.0854019e-05  7.247142e-05   1378.8382      344.70955      344.70955      8.3325998e-05  1.6384e+08   
     31200   0.19933573    -21.275887      0.29900045    -20.976886      7.5975849e-05  6.8396511e-05  4.2056236e-05  1378.8382      344.70955      344.70955      6.2142865e-05  1.6384e+08   
     31300   0.19844302    -21.2759        0.2976614     -20.978239      8.2996399e-05  5.9873734e-05  8.0375749e-05  1378.8382      344.70955      344.70955      7.4415294e-05  1.6384e+08   
[...]
    190500   0.039930666   -21.340319      0.059895369   -21.280424      0.024937393    0.032124647    0.023431191    201.58737      50.396842      50.396842      0.026831077    512000       
    190600   0.040102967   -21.340371      0.060153818   -21.280218      0.030535188    0.021892403    0.025384169    201.58737      50.396842      50.396842      0.025937253    512000       
    190700   0.040086291   -21.340181      0.060128805   -21.280052      0.028070495    0.030749193    0.028372953    201.58737      50.396842      50.396842      0.029064214    512000       
    190800   0.040045572   -21.340331      0.060067726   -21.280263      0.027977031    0.026186317    0.025631768    201.58737      50.396842      50.396842      0.026598372    512000       
    190900   0.03993987    -21.340393      0.059909175   -21.280484      0.029202164    0.023791013    0.030957089    201.58737      50.396842      50.396842      0.027983422    512000       
    191000   0.040022852   -21.340369      0.060033647   -21.280336      0.026793041    0.023485711    0.02624854     201.58737      50.396842      50.396842      0.025509097    512000       
    191100   0.03997422    -21.340269      0.0599607     -21.280308      0.024622579    0.0204428      0.023577751    201.58737      50.396842      50.396842      0.022881043    512000       
    191200   0.040075826   -21.340228      0.060113107   -21.280115      0.024783598    0.021060587    0.024760357    201.58737      50.396842      50.396842      0.023534848    512000       
    191300   0.039936289   -21.340323      0.059903804   -21.28042       0.026355967    0.023857421    0.020207383    201.58737      50.396842      50.396842      0.02347359     512000       
    191400   0.040162514   -21.340331      0.060243138   -21.280088      0.027122475    0.024781966    0.029566481    201.58737      50.396842      50.396842      0.027156974    512000       
    191500   0.040071429   -21.339865      0.060106512   -21.279759      0.033238276    0.028789465    0.028356928    201.58737      50.396842      50.396842      0.030128223    512000       
    191600   0.040031525   -21.339696      0.060046656   -21.279649      0.027998384    0.030127252    0.035238027    201.58737      50.396842      50.396842      0.031121221    512000       
    191700   0.039878452   -21.339847      0.059817049   -21.28003       0.029646509    0.028696103    0.028810182    201.58737      50.396842      50.396842      0.029050932    512000       
    191800   0.039946361   -21.33968       0.059918912   -21.279761      0.024627597    0.026353616    0.025193178    201.58737      50.396842      50.396842      0.025391464    512000       
    191900   0.039916131   -21.339786      0.059873567   -21.279913      0.024240355    0.026708534    0.026504931    201.58737      50.396842      50.396842      0.02581794     512000       
    192000   0.04004292    -21.339898      0.060063749   -21.279834      0.023555001    0.027966944    0.025532833    201.58737      50.396842      50.396842      0.025684926    512000       
    192100   0.040086464   -21.339888      0.060129065   -21.279759      0.022118447    0.02047682     0.022020844    201.58737      50.396842      50.396842      0.021538704    512000       
    192200   0.0400868     -21.339789      0.060129568   -21.27966       0.027403742    0.028959303    0.026073106    201.58737      50.396842      50.396842      0.027478717    512000       
    192300   0.039924216   -21.339926      0.059885694   -21.280041      0.030127409    0.025030172    0.030962976    201.58737      50.396842      50.396842      0.028706852    512000       
    192400   0.040096984   -21.339978      0.060144845   -21.279833      0.029934983    0.030896957    0.02519516     201.58737      50.396842      50.396842      0.0286757      512000       
    192500   0.03990566    -21.339698      0.059857862   -21.27984       0.028443618    0.025455642    0.02755219     201.58737      50.396842      50.396842      0.027150483    512000       
    192600   0.040091453   -21.339617      0.060136547   -21.279481      0.034467718    0.024699934    0.028804382    201.58737      50.396842      50.396842      0.029324012    512000       
    192700   0.040108654   -21.339604      0.060162349   -21.279442      0.029567567    0.029431348    0.027401696    201.58737      50.396842      50.396842      0.028800204    512000       
    192800   0.040043422   -21.339694      0.060064502   -21.27963       0.033438679    0.030137712    0.027018334    201.58737      50.396842      50.396842      0.030198241    512000       
    192900   0.040112545   -21.33973       0.060168185   -21.279562      0.027721153    0.028132366    0.028002095    201.58737      50.396842      50.396842      0.027951871    512000       
    193000   0.040065996   -21.339586      0.060098363   -21.279488      0.028168263    0.032148861    0.024199073    201.58737      50.396842      50.396842      0.028172065    512000       
    193100   0.040160566   -21.339564      0.060240215   -21.279324      0.025315705    0.024444199    0.023220831    201.58737      50.396842      50.396842      0.024326912    512000       
    193200   0.04012106    -21.33983       0.060180958   -21.279649      0.024532445    0.026880041    0.024047467    201.58737      50.396842      50.396842      0.025153318    512000       
    193300   0.040034729   -21.339538      0.060051463   -21.279487      0.027852629    0.02430426     0.024406168    201.58737      50.396842      50.396842      0.025521019    512000       
    193400   0.039778656   -21.339538      0.059667357   -21.27987       0.023985718    0.024279722    0.026043124    201.58737      50.396842      50.396842      0.024769521    512000       
    193500   0.040030109   -21.339588      0.060044533   -21.279544      0.026191303    0.031708172    0.024000221    201.58737      50.396842      50.396842      0.027299899    512000       
    193600   0.040068592   -21.339492      0.060102257   -21.27939       0.028762727    0.024302273    0.025390426    201.58737      50.396842      50.396842      0.026151809    512000       
    193700   0.040079308   -21.33962       0.06011833    -21.279501      0.027752848    0.025816385    0.02817993     201.58737      50.396842      50.396842      0.027249721    512000       
    193800   0.040041946   -21.339435      0.060062287   -21.279373      0.027373491    0.028667011    0.027528639    201.58737      50.396842      50.396842      0.02785638     512000       
    193900   0.040141318   -21.339506      0.060211345   -21.279294      0.026259963    0.029973052    0.027869102    201.58737      50.396842      50.396842      0.028034039    512000       
    194000   0.040069856   -21.339381      0.060104153   -21.279277      0.029626937    0.023458807    0.021584631    201.58737      50.396842      50.396842      0.024890125    512000       
    194100   0.039922054   -21.339526      0.059882451   -21.279644      0.027711471    0.024669411    0.027214788    201.58737      50.396842      50.396842      0.02653189     512000       
    194200   0.039967805   -21.339399      0.059951078   -21.279447      0.026620049    0.027355315    0.028132287    201.58737      50.396842      50.396842      0.027369217    512000       
    194300   0.039805651   -21.339426      0.059707849   -21.279718      0.026764711    0.022225844    0.021932008    201.58737      50.396842      50.396842      0.023640855    512000       
    194400   0.039797992   -21.339256      0.059696361   -21.27956       0.024745871    0.02509233     0.025037263    201.58737      50.396842      50.396842      0.024958488    512000       
    194500   0.040021772   -21.339345      0.060032027   -21.279313      0.026572548    0.024784115    0.025235975    201.58737      50.396842      50.396842      0.02553088     512000       
    194600   0.039806734   -21.339183      0.059709474   -21.279474      0.028124609    0.024948677    0.023464736    201.58737      50.396842      50.396842      0.025512674    512000       
    194700   0.040017446   -21.339329      0.060025538   -21.279303      0.029105858    0.031404671    0.030268064    201.58737      50.396842      50.396842      0.030259531    512000       
    194800   0.040012606   -21.339071      0.060018279   -21.279053      0.027684478    0.024073998    0.029203223    201.58737      50.396842      50.396842      0.026987233    512000       
    194900   0.040135221   -21.339365      0.060202199   -21.279163      0.018261243    0.022999536    0.020629737    201.58737      50.396842      50.396842      0.020630172    512000       
    195000   0.039999894   -21.339305      0.059999211   -21.279305      0.025435717    0.02563244     0.023207792    201.58737      50.396842      50.396842      0.02475865     512000       
    195100   0.040043026   -21.339408      0.060063908   -21.279344      0.027859991    0.019118938    0.025537865    201.58737      50.396842      50.396842      0.024172264    512000       
    195200   0.039919731   -21.339203      0.059878968   -21.279324      0.023839649    0.02477962     0.021986259    201.58737      50.396842      50.396842      0.023535176    512000       
    195300   0.039931188   -21.33917       0.059896153   -21.279274      0.028960281    0.024026254    0.024967257    201.58737      50.396842      50.396842      0.025984597    512000       
    195400   0.040228732   -21.339         0.060342464   -21.278657      0.02598358     0.027900732    0.025539075    201.58737      50.396842      50.396842      0.026474462    512000       
    195500   0.039973155   -21.339127      0.059959103   -21.279168      0.022979775    0.021216857    0.026578851    201.58737      50.396842      50.396842      0.023591828    512000       
    195600   0.039906975   -21.339222      0.059859833   -21.279362      0.020302166    0.021149464    0.026247396    201.58737      50.396842      50.396842      0.022566342    512000       
    195700   0.03996164    -21.339032      0.05994183    -21.27909       0.023808705    0.023244618    0.022687401    201.58737      50.396842      50.396842      0.023246908    512000       
    195800   0.039951527   -21.339229      0.059926661   -21.279303      0.022323216    0.018638186    0.019319331    201.58737      50.396842      50.396842      0.020093578    512000       
    195900   0.040127766   -21.339084      0.060191017   -21.278893      0.02754876     0.025498716    0.021478302    201.58737      50.396842      50.396842      0.024841926    512000       
    196000   0.039847173   -21.338921      0.059770131   -21.279151      0.024667349    0.028826666    0.024754908    201.58737      50.396842      50.396842      0.026082974    512000       
    196100   0.040177752   -21.338839      0.060265995   -21.278573      0.027115572    0.025564462    0.020987144    201.58737      50.396842      50.396842      0.024555726    512000       
    196200   0.039999381   -21.338885      0.059998441   -21.278886      0.023087378    0.024345895    0.028639658    201.58737      50.396842      50.396842      0.025357644    512000       
    196300   0.040019172   -21.338909      0.060028127   -21.278881      0.026637744    0.028396374    0.025516371    201.58737      50.396842      50.396842      0.026850163    512000       
    196400   0.039943257   -21.338843      0.059914256   -21.278929      0.024805261    0.02717449     0.018863959    201.58737      50.396842      50.396842      0.02361457     512000       
    196500   0.040053885   -21.338785      0.060080196   -21.278705      0.023864931    0.022069489    0.027692878    201.58737      50.396842      50.396842      0.024542433    512000       
    196600   0.040321104   -21.339118      0.06048102    -21.278637      0.02295495     0.023726205    0.021357866    201.58737      50.396842      50.396842      0.022679674    512000       
    196700   0.040057542   -21.339065      0.060085682   -21.27898       0.026649842    0.027411138    0.025277628    201.58737      50.396842      50.396842      0.026446203    512000       
    196800   0.039905086   -21.338851      0.059857      -21.278994      0.02048214     0.026345405    0.027127741    201.58737      50.396842      50.396842      0.024651762    512000       
    196900   0.039987683   -21.33862       0.059980895   -21.278639      0.021529908    0.024960124    0.021700763    201.58737      50.396842      50.396842      0.022730265    512000       
    197000   0.039863735   -21.338981      0.059794974   -21.279186      0.021322371    0.024657051    0.025252574    201.58737      50.396842      50.396842      0.023743999    512000       
    197100   0.039998901   -21.33885       0.059997722   -21.278852      0.021839983    0.02556016     0.02113065     201.58737      50.396842      50.396842      0.022843598    512000       
    197200   0.040076975   -21.338915      0.060114831   -21.2788        0.018887612    0.021325634    0.023342486    201.58737      50.396842      50.396842      0.021185244    512000       
    197300   0.039989278   -21.338973      0.059983287   -21.27899       0.024107559    0.024819894    0.031189012    201.58737      50.396842      50.396842      0.026705488    512000       
    197400   0.039984406   -21.338788      0.059975979   -21.278812      0.024213534    0.030327551    0.026119602    201.58737      50.396842      50.396842      0.026886896    512000       
    197500   0.039778719   -21.33876       0.059667451   -21.279093      0.026082952    0.024982807    0.030074469    201.58737      50.396842      50.396842      0.027046743    512000       
    197600   0.03984028    -21.338761      0.059759792   -21.279001      0.026826811    0.026627097    0.021611233    201.58737      50.396842      50.396842      0.025021714    512000       
    197700   0.040042136   -21.338602      0.060062573   -21.27854       0.02559247     0.022394571    0.030991215    201.58737      50.396842      50.396842      0.026326085    512000       
    197800   0.039874595   -21.338698      0.059811264   -21.278887      0.031430086    0.026981705    0.024746854    201.58737      50.396842      50.396842      0.027719548    512000       
    197900   0.039969615   -21.338827      0.059953792   -21.278873      0.028350956    0.022010076    0.023827041    201.58737      50.396842      50.396842      0.024729358    512000       
    198000   0.039640472   -21.33842       0.059460083   -21.27896       0.021973779    0.021490452    0.021673119    201.58737      50.396842      50.396842      0.02171245     512000       
    198100   0.03993704    -21.338383      0.05990493    -21.278478      0.026044272    0.022454236    0.027083064    201.58737      50.396842      50.396842      0.025193857    512000       
    198200   0.039974306   -21.338538      0.059960829   -21.278577      0.023522489    0.030188993    0.02458612     201.58737      50.396842      50.396842      0.026099201    512000       
    198300   0.040033097   -21.338543      0.060049014   -21.278494      0.024924576    0.020698283    0.029231788    201.58737      50.396842      50.396842      0.024951549    512000       
    198400   0.039922636   -21.338299      0.059883324   -21.278416      0.02338035     0.020934111    0.028056726    201.58737      50.396842      50.396842      0.024123729    512000       
    198500   0.040123724   -21.338447      0.060184953   -21.278262      0.025709939    0.028359612    0.026914655    201.58737      50.396842      50.396842      0.026994735    512000       
    198600   0.039960335   -21.338309      0.059939873   -21.278369      0.022354153    0.021924421    0.030481853    201.58737      50.396842      50.396842      0.024920142    512000       
    198700   0.039967937   -21.338369      0.059951275   -21.278418      0.028632406    0.024239195    0.017159576    201.58737      50.396842      50.396842      0.023343726    512000       
    198800   0.040257226   -21.338601      0.060385204   -21.278216      0.023972447    0.024518778    0.023621367    201.58737      50.396842      50.396842      0.024037531    512000       
    198900   0.040077999   -21.338604      0.060116367   -21.278488      0.021812248    0.020783088    0.024427295    201.58737      50.396842      50.396842      0.022340877    512000       
    199000   0.040013211   -21.338316      0.060019186   -21.278297      0.027014734    0.019970383    0.022372306    201.58737      50.396842      50.396842      0.023119141    512000       
    199100   0.039793242   -21.338678      0.059689236   -21.278989      0.028847737    0.025290804    0.026363823    201.58737      50.396842      50.396842      0.026834121    512000       
    199200   0.039916585   -21.338376      0.059874249   -21.278502      0.021456299    0.020199207    0.021560759    201.58737      50.396842      50.396842      0.021072088    512000       
    199300   0.039784876   -21.338454      0.059676688   -21.278777      0.023122014    0.025352537    0.023862152    201.58737      50.396842      50.396842      0.024112235    512000       
    199400   0.039906769   -21.338232      0.059859524   -21.278373      0.022311115    0.02503214     0.020387151    201.58737      50.396842      50.396842      0.022576802    512000       
    199500   0.039972337   -21.338255      0.059957875   -21.278297      0.017464003    0.021993751    0.028243821    201.58737      50.396842      50.396842      0.022567192    512000       
    199600   0.039953581   -21.338106      0.059929741   -21.278177      0.022794259    0.024911542    0.016671125    201.58737      50.396842      50.396842      0.021458975    512000       
    199700   0.039785935   -21.338287      0.059678276   -21.278609      0.019396038    0.022176264    0.025549006    201.58737      50.396842      50.396842      0.022373769    512000       
    199800   0.039801759   -21.338252      0.059702011   -21.27855       0.021780731    0.025759952    0.021630365    201.58737      50.396842      50.396842      0.023057016    512000       
    199900   0.04007952    -21.338193      0.060118649   -21.278074      0.019541209    0.018587043    0.024410817    201.58737      50.396842      50.396842      0.020846356    512000       
    200000   0.039836955   -21.338287      0.059754805   -21.278532      0.020764188    0.021686187    0.022814835    201.58737      50.396842      50.396842      0.02175507     512000       
Loop time of 404.436 on 1 procs for 30000 steps with 95168 atoms

Performance: 6408.924 tau/day, 74.177 timesteps/s, 7.059 Matom-step/s
100.0% CPU use with 1 MPI tasks x 1 OpenMP threads

MPI task timing breakdown:
Section |  min time  |  avg time  |  max time  |%varavg| %total
---------------------------------------------------------------
Pair    | 330.91     | 330.91     | 330.91     |   0.0 | 81.82
Neigh   | 5.4643     | 5.4643     | 5.4643     |   0.0 |  1.35
Comm    | 6.0471     | 6.0471     | 6.0471     |   0.0 |  1.50
Output  | 0.38246    | 0.38246    | 0.38246    |   0.0 |  0.09
Modify  | 47.759     | 47.759     | 47.759     |   0.0 | 11.81
Other   |            | 13.87      |            |       |  3.43

Nlocal:          95168 ave       95168 max       95168 min
Histogram: 1 0 0 0 0 0 0 0 0 0
Nghost:          23820 ave       23820 max       23820 min
Histogram: 1 0 0 0 0 0 0 0 0 0
Neighs:    1.11486e+06 ave 1.11486e+06 max 1.11486e+06 min
Histogram: 1 0 0 0 0 0 0 0 0 0

Total # of neighbors = 1114862
Ave neighs/atom = 11.714673
Neighbor list builds = 87
Dangerous builds = 0
unfix           1

write_data      s1.data
System init for write_data ...
Generated 0 of 36 mixed pair_coeff terms from geometric mixing rule
WARNING: Not all mixed pair coeffs generated from mixing. Use write_data with 'pair ij' option to store all pair coeffs. (src/write_data.cpp:364)
quit
