LAMMPS (19 Nov 2024 - Development - patch_2Jul2021-14588-g93bfae9507)
OMP_NUM_THREADS environment is not set. Defaulting to 1 thread. (src/comm.cpp:99)
  using 1 OpenMP thread(s) per MPI task
######### 3d Lennard-Jones for polymeric system #############
######## simulting polymer brush by "grafting from" approach##
##### study the effect of iniatior density embedded in the #### #### substrate on chain length disbribution and polydispersity###

units		lj
atom_style	atomic
boundary        p p p
########## configure the simulation setup ############
#rho is 0.016 before
read_data	after.data nocoeff
Reading data file ...
  orthogonal box = (0 8 8) to (512 24 24)
  1 by 1 by 1 MPI processor grid
WARNING: Pair style lj/cut/bump in data file differs from currently defined pair style zero (src/read_data.cpp:786)
  reading atoms ...
  25781 atoms
  reading velocities ...
  25781 velocities
  read_data CPU = 0.322 seconds
#read_restart	agoodstart.restart
#replicate	1 2 2
variable        rho equal 2/(2*2^(1./6.))^3

variable        dimx equal 16*4
variable        dimy equal 8*2
variable        dimz equal 8*2

region	end block  0 2 INF INF INF INF units box
#delete_atoms	region end

#lattice	sc 0.125
#region	mybox block 0 50 0 30 0 30 units box
#create_atoms 5 box

#mass (soft segment = 1.0 / hard segment = 1.0)
variable        mass5 equal 1.0
mass            * 1.0
mass            1 0.2
mass            2 0.2
mass            3 0.1
mass            4 0.1
mass            5 0.35 #solvent mass

mass            6 0.1
mass            7 1.0
mass            8 1.0

###### randomly reset some of the bottom substrate atoms to radical atoms ####

group           patch4 type 4
4096 atoms in group patch4
group           patch1 type 1
1024 atoms in group patch1
group           patch2 type 2
1024 atoms in group patch2
group           patch3 type 3
4096 atoms in group patch3
group           patch6 type 6
8192 atoms in group patch6
group           patch5 type 5
1237 atoms in group patch5
group           patch7 type 7
3056 atoms in group patch7
group           patch8 type 8
3056 atoms in group patch8
#delete_atoms   group patch6
group           patch9 type 9
0 atoms in group patch9
delete_atoms    group patch9
Deleted 0 atoms, new total = 25781
#delete_atoms    group patch3
#delete_atoms    group patch4
#delete_atoms    group patch6


#temperature is 0.028 before
variable	t equal 0.04
variable	tf equal 0.04
velocity	all create $t 1234
velocity	all create 0.04 1234

#c is 2.35 before for chains, 1.9 for very compact
variable        c equal 1.8
variable        s equal $c/2^(1./6.)
variable        s equal 1.8/2^(1./6.)

#variable        m equal ${shift}/2^(1./6.)
#variable        n equal $m*1.6

variable        u equal 1.0
variable        v equal $u/2^(1./6.)
variable        v equal 1/2^(1./6.)

variable        p equal 1.0
variable        q equal $p/2^(1./6.)
variable        q equal 1/2^(1./6.)

variable        h equal 1.0
variable        k equal $h/2^(1./6.)
variable        k equal 1/2^(1./6.)

variable        h2 equal 1.0
variable        k2 equal ${h2}/2^(1./6.)
variable        k2 equal 1/2^(1./6.)

variable        h3 equal sqrt(2.0) # 1.414
variable        k3 equal ${h3}/2^(1./6.)
variable        k3 equal 1.4142135623731/2^(1./6.)

variable        b equal 0.2
variable        b1 equal 0.14

variable        c3 equal 2.0
variable        s3 equal ${c3}/2^(1./6.)
variable        s3 equal 2/2^(1./6.)

variable        c5 equal 1.6
variable        s5 equal ${c5}/2^(1./6.)
variable        s5 equal 1.6/2^(1./6.)

variable        h4 equal 0.5
variable        k4 equal ${h4}/2^(1./6.)
variable        k4 equal 0.5/2^(1./6.)

variable        h5 equal 0.50
variable        k5 equal ${h5}/2^(1./6.)
variable        k5 equal 0.5/2^(1./6.)

variable        c4 equal 0.707
variable        s4 equal ${c4}/2^(1./6.)
variable        s4 equal 0.707/2^(1./6.)

variable        c6 equal 2.5
variable        s6 equal ${c6}/2^(1./6.)
variable        s6 equal 2.5/2^(1./6.)

variable        c7 equal 2.8
variable        s7 equal ${c7}/2^(1./6.)
variable        s7 equal 2.8/2^(1./6.)

#pair_style     lj/cut/bump/smooth/linear 2.5
pair_style      lj/cut/bump 2.8 #cutoff 2.8
pair_coeff      * * 0.02 $v 1.0 1 0 $u
pair_coeff      * * 0.02 0.890898718140339 1.0 1 0 $u
pair_coeff      * * 0.02 0.890898718140339 1.0 1 0 1

#backbone
#in hard segment
pair_coeff      1 1 20.0 $s  1.0 1 0 1.8 #1.8 only repulsion
pair_coeff      1 1 20.0 1.60361769265261  1.0 1 0 1.8 
pair_coeff      2 2 20.0 $s  1.0 1 0 1.8 #1.8 only repulsion
pair_coeff      2 2 20.0 1.60361769265261  1.0 1 0 1.8 
pair_coeff      1 2 20.0 ${k2} 1.2 1 1.0 1.8 #1 strong bond
pair_coeff      1 2 20.0 0.890898718140339 1.2 1 1.0 1.8 

#connect soft segments in outside and inside hard segments
pair_coeff      2 7 20.0 ${k2} 1.2 1 1.0 1.8 #1 strong bond
pair_coeff      2 7 20.0 0.890898718140339 1.2 1 1.0 1.8 
pair_coeff      1 8 20.0 ${k2} 1.2 1 1.0 1.8 #1 strong bond
pair_coeff      1 8 20.0 0.890898718140339 1.2 1 1.0 1.8 
pair_coeff      1 7 20.0 $s  1.0 1 0 1.8 #1.8 only repulsion
pair_coeff      1 7 20.0 1.60361769265261  1.0 1 0 1.8 
pair_coeff      2 8 20.0 $s  1.0 1 0 1.8 #1.8 only repulsion
pair_coeff      2 8 20.0 1.60361769265261  1.0 1 0 1.8 

#soft segment (distance between soft/soft = 2.2)
pair_coeff      7 7 20.0 $s  1.0 1 0 1.8 #1.8 only repulsion
pair_coeff      7 7 20.0 1.60361769265261  1.0 1 0 1.8 
pair_coeff      8 8 20.0 $s  1.0 1 0 1.8 #1.8 only repulsion
pair_coeff      8 8 20.0 1.60361769265261  1.0 1 0 1.8 
pair_coeff      7 8 20.0 ${k2} 1.2 1 1.0 1.8 #1 strong bond
pair_coeff      7 8 20.0 0.890898718140339 1.2 1 1.0 1.8 

#intramolecular interactions in hard segments
pair_coeff      1 3 20.0 ${k4} 1.2 1 2.0 1.118 #0.5 strong bond
pair_coeff      1 3 20.0 0.44544935907017 1.2 1 2.0 1.118 
pair_coeff      2 3 20.0 ${k4} 1.2 1 2.0 1.118 #0.5 strong bond
pair_coeff      2 3 20.0 0.44544935907017 1.2 1 2.0 1.118 
pair_coeff      1 4 20.0 ${k4} 1.2 1 2.0 1.118 #0.5 strong bond
pair_coeff      1 4 20.0 0.44544935907017 1.2 1 2.0 1.118 
pair_coeff      2 4 20.0 ${k4} 1.2 1 2.0 1.118 #0.5 strong bond
pair_coeff      2 4 20.0 0.44544935907017 1.2 1 2.0 1.118 
pair_coeff      1*2 6 20.0 ${s4} 1.2 1 2.0 1.225 #0.707 strong bond
pair_coeff      1*2 6 20.0 0.62986539372522 1.2 1 2.0 1.225 

pair_coeff      3 4 20.0 ${s4} 1.2 1 2.0 1.225 #0.707 weak bond ####
pair_coeff      3 4 20.0 0.62986539372522 1.2 1 2.0 1.225 
pair_coeff      3*4 6 20.0 ${k4} 1.2 1 2.0 1.118 #0.5 strong bond
pair_coeff      3*4 6 20.0 0.44544935907017 1.2 1 2.0 1.118 
#pair_coeff      3*4 6 0.01 ${k5} 1.2 1 0.0 0.50 #0.50 only repulsion ####

#pair_coeff      3 3 10.0 ${k2} 1.2 1 1.0 1.2 #1 strong bond_initial
#pair_coeff      4 4 10.0 ${k2} 1.2 1 1.0 1.2 #1 strong bond_initial

pair_coeff      6 6 5.0 ${k2} 1.16 1.0 2.0 1.12 #1 strong bond ####
pair_coeff      6 6 5.0 0.890898718140339 1.16 1.0 2.0 1.12 

#intermolecular interactions between soft and hard segments

pair_coeff      3*4 7 0.01 ${k4} 1.2 1 0.0 0.5 #0.5 only repulsion
pair_coeff      3*4 7 0.01 0.44544935907017 1.2 1 0.0 0.5 
pair_coeff      3*4 8 0.01 ${k4} 1.2 1 0.0 0.5 #0.5 only repulsion
pair_coeff      3*4 8 0.01 0.44544935907017 1.2 1 0.0 0.5 
pair_coeff      6 7 0.01 ${k4} 1.2 1 0.0 0.5 #0.5 only repulsion
pair_coeff      6 7 0.01 0.44544935907017 1.2 1 0.0 0.5 
pair_coeff      6 8 0.01 ${k4} 1.2 1 0.0 0.5 #0.5 only repulsion
pair_coeff      6 8 0.01 0.44544935907017 1.2 1 0.0 0.5 

#turn on hydrophobic interaction of solvent particles
variable        c8 equal 2.0
variable        s8 equal ${c8}/2^(1./6.)
variable        s8 equal 2/2^(1./6.)

variable        c9 equal 2.2
variable        s9 equal ${c9}/2^(1./6.)
variable        s9 equal 2.2/2^(1./6.)

variable        c10 equal 0.3
variable        s10 equal ${c10}/2^(1./6.)
variable        s10 equal 0.3/2^(1./6.)

pair_coeff      1*2 5 0.05 ${s9} 1.2 1 0.0 2.2 # 2.2 only repulsion
pair_coeff      1*2 5 0.05 1.95997717990875 1.2 1 0.0 2.2 

pair_coeff      3*4 5 0.01 ${s10} 1.2 1 0.0 0.3 #only repulsion
pair_coeff      3*4 5 0.01 0.267269615442102 1.2 1 0.0 0.3 
pair_coeff      5 6 0.01 ${s10} 1.2 1 0.0 0.3 #only repulsion
pair_coeff      5 6 0.01 0.267269615442102 1.2 1 0.0 0.3 

#turn on 33bond and 44bond
pair_coeff      3 3 2.5 ${k2} 1.1 0.415 2.0 2.8 #1 strong bond
pair_coeff      3 3 2.5 0.890898718140339 1.1 0.415 2.0 2.8 
pair_coeff      4 4 2.5 ${k2} 1.1 0.475 2.0 2.8 #1 strong bond
pair_coeff      4 4 2.5 0.890898718140339 1.1 0.475 2.0 2.8 

#solvent behavior
pair_coeff      5 5 0.05 ${s9} 1.2 1 0.0 2.2 # 2.2 only repulsion
pair_coeff      5 5 0.05 1.95997717990875 1.2 1 0.0 2.2 

pair_coeff      5 7 0.05 ${s8} 1.2 1 0.0 2.8 # 2.0 attraction
pair_coeff      5 7 0.05 1.78179743628068 1.2 1 0.0 2.8 
pair_coeff      5 8 0.05 ${s8} 1.2 1 0.0 2.8 # 2.0 attraction
pair_coeff      5 8 0.05 1.78179743628068 1.2 1 0.0 2.8 

pair_modify     tail no
pair_modify     shift yes
neighbor        0.5 bin
neigh_modify    every 1 delay 0 check yes
#neigh_modify    page 100000000000
#neigh_modify    one  10000000000

timestep        0.001
thermo          2000
thermo_style    custom step temp pe ke etotal pxx pyy pzz lx ly lz press vol

#turn on 33bond and 44bond
#pair_coeff      3 3 5.0 ${k2} 1.1 0.405 1.0 2.8 #1 strong bond
#pair_coeff      4 4 5.0 ${k2} 1.1 0.475 1.0 2.8 #1 strong bond

#turn on hydrophilic interaction of solvent particles
#pair_coeff      5 5 0.05 $s 1.2 1 0.0 2.8 # 1.8 attraction

#pair_coeff      5 7 0.05 ${s9} 1.2 1 0.0 2.8 # 2.0 attraction
#pair_coeff      5 8 0.05 ${s9} 1.2 1 0.0 2.8 # 2.0 attraction


#restart         455000 agoodstart.restart


dump            1 all custom 100000 lata4olivia_assembly id type x y z fx fy fz vx vy vz
################relaxation (P drop)######################
#minimize        1e-5 1e-6 100000 100000
fix		1 all nvt temp ${tf} ${tf} 0.01
fix		1 all nvt temp 0.04 ${tf} 0.01
fix		1 all nvt temp 0.04 0.04 0.01
run		200000 #pre-assemble
Generated 0 of 36 mixed pair_coeff terms from geometric mixing rule
Neighbor list info ...
  update: every = 1 steps, delay = 0 steps, check = yes
  max neighbors/atom: 2000, page size: 100000
  master list distance cutoff = 3.3
  ghost atom cutoff = 3.3
  binsize = 1.65, bins = 311 10 10
  1 neighbor lists, perpetual/occasional/extra = 1 0 0
  (1) pair lj/cut/bump, perpetual
      attributes: half, newton on
      pair build: half/bin/atomonly/newton
      stencil: half/bin/3d
      bin: standard
Per MPI rank memory allocation (min/avg/max) = 13.02 | 13.02 | 13.02 Mbytes
   Step          Temp          PotEng         KinEng         TotEng          Pxx            Pyy            Pzz             Lx             Ly             Lz           Press          Volume    
         0   0.04          -34.939043      0.059997673   -34.879045      4.9761786     -1.1824639     -0.56985578     512            16             16             1.0746196      131072       
      2000   0.033241777   -38.377457      0.049860732   -38.327597     -0.059465478    0.0012899279   0.0032410732   512            16             16            -0.018311492    131072       
      4000   0.041908492   -38.375934      0.062860299   -38.313073     -0.15036816     0.00096795687  0.0050153191   512            16             16            -0.048128293    131072       
      6000   0.039316015   -38.373388      0.058971734   -38.314417     -0.25462738     0.0055434349   0.011298412    512            16             16            -0.079261845    131072       
      8000   0.039843099   -38.375733      0.05976233    -38.315971     -0.29942497     0.0018991757   0.0020830008   512            16             16            -0.098480931    131072       
     10000   0.040162838   -38.385086      0.060241921   -38.324844     -0.31674522     0.012994506    0.012515682    512            16             16            -0.097078343    131072       
     12000   0.04018869    -38.396718      0.060280697   -38.336438     -0.27684454     0.010465996    0.0073199828   512            16             16            -0.086352855    131072       
     14000   0.040001213   -38.405953      0.059999492   -38.345953     -0.23424037     0.0015822963   0.0070880547   512            16             16            -0.075190005    131072       
     16000   0.039790574   -38.413906      0.059683546   -38.354222     -0.20081187     0.0080190609   0.0026029195   512            16             16            -0.063396629    131072       
     18000   0.040480695   -38.420822      0.060718687   -38.360103     -0.18034123     0.012781334    0.0017097841   512            16             16            -0.055283369    131072       
     20000   0.039987668   -38.426647      0.059979176   -38.366668     -0.18255752     0.0067109426  -0.0085470153   512            16             16            -0.061464531    131072       
     22000   0.039911713   -38.43113       0.059865248   -38.371265     -0.17959172    -0.011104517   -0.00077340887  512            16             16            -0.063823215    131072       
     24000   0.039703164   -38.432542      0.059552436   -38.37299      -0.17225933    -0.0013874607   0.0053381068   512            16             16            -0.056102893    131072       
     26000   0.040254378   -38.436007      0.060379225   -38.375627     -0.17018199     0.0042159193  -0.0085531035   512            16             16            -0.058173057    131072       
     28000   0.040124735   -38.43662       0.060184768   -38.376435     -0.15875691     0.0012928595  -0.017306457    512            16             16            -0.058256837    131072       
     30000   0.039697852   -38.438162      0.059544469   -38.378618     -0.15541919    -0.0059707763   0.0039105134   512            16             16            -0.052493152    131072       
     32000   0.039789424   -38.440104      0.059681821   -38.380422     -0.13854747    -0.019633218   -0.015300156    512            16             16            -0.057826947    131072       
     34000   0.040286155   -38.443473      0.060426888   -38.383046     -0.15811265    -0.00034875297 -0.0089557931   512            16             16            -0.055805732    131072       
     36000   0.039942021   -38.444808      0.059910708   -38.384898     -0.10782496     0.0067028557   0.012779697    512            16             16            -0.029447468    131072       
     38000   0.040006443   -38.445826      0.060007337   -38.385819     -0.12962864    -0.021353142    9.4868599e-05  512            16             16            -0.050295639    131072       
     40000   0.040149997   -38.448727      0.06022266    -38.388504     -0.14642439    -0.012906817    0.0066140723   512            16             16            -0.050905711    131072       
     42000   0.040127525   -38.451031      0.060188953   -38.390842     -0.12837441    -0.0032095224  -0.0083670551   512            16             16            -0.046650329    131072       
     44000   0.039431096   -38.452613      0.05914435    -38.393468     -0.12901484    -0.0023112689  -0.00021324497  512            16             16            -0.04384645     131072       
     46000   0.039832958   -38.453201      0.059747119   -38.393454     -0.097263859   -0.019567838   -0.017139645    512            16             16            -0.044657114    131072       
     48000   0.039646176   -38.455914      0.059466957   -38.396447     -0.10419416    -0.017723601   -0.016892372    512            16             16            -0.046270045    131072       
     50000   0.039878777   -38.459162      0.059815845   -38.399346     -0.13181721    -0.035717505   -0.0034153009   512            16             16            -0.056983338    131072       
     52000   0.039943513   -38.461281      0.059912945   -38.401368     -0.099014987   -0.019274279    0.011042469    512            16             16            -0.035748932    131072       
     54000   0.03991849    -38.461817      0.059875413   -38.401942     -0.10977573     0.0013248448  -0.0034586526   512            16             16            -0.037303178    131072       
     56000   0.04015582    -38.462539      0.060231394   -38.402307     -0.13021446    -0.0066342609  -0.0029749146   512            16             16            -0.04660788     131072       
     58000   0.039743853   -38.463562      0.059613467   -38.403948     -0.091866626   -0.021777928    0.017754771    512            16             16            -0.031963261    131072       
     60000   0.039765486   -38.463671      0.059645915   -38.404025     -0.086799391   -0.0050635406  -0.015242559    512            16             16            -0.03570183     131072       
     62000   0.040195506   -38.46351       0.060290921   -38.403219     -0.085954875    0.0077380037   0.0035222871   512            16             16            -0.024898195    131072       
     64000   0.039772503   -38.463804      0.05965644    -38.404148     -0.069194617   -0.010409391   -0.0082798562   512            16             16            -0.029294622    131072       
     66000   0.040017526   -38.464981      0.06002396    -38.404957     -0.071053815   -0.011460127    0.00073747128  512            16             16            -0.027258824    131072       
     68000   0.03995407    -38.464375      0.05992878    -38.404446     -0.086804373   -0.0093077259  -0.011220949    512            16             16            -0.035777683    131072       
     70000   0.040345056   -38.464752      0.060515237   -38.404237     -0.078019655   -0.012805295    0.0030256143   512            16             16            -0.029266445    131072       
     72000   0.040533105   -38.464394      0.0607973     -38.403596     -0.061276313    0.012822566   -0.0020987054   512            16             16            -0.016850817    131072       
     74000   0.039989397   -38.46438       0.059981769   -38.404398     -0.059033803   -0.001807417    0.0019749452   512            16             16            -0.019622092    131072       
     76000   0.040315502   -38.466074      0.060470907   -38.405603     -0.049771027   -0.020147794    0.001077428    512            16             16            -0.022947131    131072       
     78000   0.039864346   -38.465923      0.059794199   -38.406129     -0.057962625    0.007700355    0.004642856    512            16             16            -0.015206471    131072       
     80000   0.039948309   -38.465754      0.059920139   -38.405834     -0.04604871    -0.015657802   -0.0050902824   512            16             16            -0.022265598    131072       
     82000   0.040088105   -38.468535      0.060129825   -38.408405     -0.090876677   -0.029221147   -0.02099407     512            16             16            -0.047030631    131072       
     84000   0.03974897    -38.46766       0.059621143   -38.408039     -0.06958954    -0.0070629415  -0.015297184    512            16             16            -0.030649889    131072       
     86000   0.040168057   -38.46915       0.060249749   -38.4089       -0.078482662   -0.0029390322   0.010272945    512            16             16            -0.02371625     131072       
     88000   0.039965514   -38.470507      0.059945946   -38.410561     -0.059303754    0.0098911369  -0.0097278789   512            16             16            -0.019713499    131072       
     90000   0.039743709   -38.471284      0.059613251   -38.411671     -0.048447604   -0.017823413   -0.0048285118   512            16             16            -0.023699843    131072       
     92000   0.039977501   -38.471034      0.059963925   -38.41107      -0.061072882    0.001208286   -0.01666561     512            16             16            -0.025510069    131072       
     94000   0.04013981    -38.471838      0.060207379   -38.41163      -0.029877655   -0.00069606654  0.0093934282   512            16             16            -0.0070600977   131072       
     96000   0.04025013    -38.471562      0.060372853   -38.41119      -0.043504529    0.0042857122   0.016091308    512            16             16            -0.0077091697   131072       
     98000   0.040218635   -38.471489      0.060325613   -38.411163     -0.047510439   -0.0015035072  -0.017834191    512            16             16            -0.022282712    131072       
    100000   0.039905632   -38.472246      0.059856126   -38.412389     -0.04837881    -0.016654006    0.0073746128   512            16             16            -0.019219401    131072       
    102000   0.040223769   -38.472704      0.060333314   -38.412371     -0.060878471    0.0033744989  -0.0059361846   512            16             16            -0.021146719    131072       
    104000   0.039978319   -38.471653      0.059965153   -38.411688     -0.022460879   -0.00096198169  0.025639846    512            16             16             0.00073899493  131072       
    106000   0.040156198   -38.472773      0.06023196    -38.412541     -0.045714538   -0.0079908994  -0.0094175939   512            16             16            -0.02104101     131072       
    108000   0.040255337   -38.47393       0.060380664   -38.41355      -0.0832876     -0.0248059     -0.0065698122   512            16             16            -0.038221104    131072       
    110000   0.040562754   -38.473671      0.06084177    -38.412829     -0.03707438    -0.0040626362   0.0038061923   512            16             16            -0.012443608    131072       
    112000   0.04016237    -38.474089      0.060241218   -38.413848     -0.05743259    -0.0064002615   0.0085908603   512            16             16            -0.018413997    131072       
    114000   0.03984618    -38.474757      0.059766951   -38.41499      -0.027629039   -0.002343792   -0.012484767    512            16             16            -0.014152533    131072       
    116000   0.040021764   -38.475251      0.060030317   -38.41522      -0.046659342   -0.0017112801   0.021178272    512            16             16            -0.0090641169   131072       
    118000   0.040000446   -38.475313      0.059998342   -38.415315     -0.021392892    0.021865813    0.014020335    512            16             16             0.0048310855   131072       
    120000   0.039892838   -38.475798      0.059836937   -38.415961     -0.059767112    0.013667228    0.013920002    512            16             16            -0.010726628    131072       
    122000   0.040010783   -38.475625      0.060013847   -38.415611     -0.046159864   -0.0006779231  -0.0091682827   512            16             16            -0.01866869     131072       
    124000   0.039895843   -38.474413      0.059841444   -38.414571     -0.0037673448   0.021296645    0.013900135    512            16             16             0.010476478    131072       
    126000   0.040043369   -38.47583       0.060062724   -38.415767     -0.021298162    0.02061994     0.0097281363   512            16             16             0.0030166382   131072       
    128000   0.039923971   -38.477442      0.059883634   -38.417558     -0.021188478   -0.010136027   -0.014377662    512            16             16            -0.015234056    131072       
    130000   0.040117711   -38.476869      0.060174232   -38.416695     -0.021093084    0.0093584279   0.0053547904   512            16             16            -0.002126622    131072       
    132000   0.040111616   -38.477121      0.06016509    -38.416956     -0.042485286   -0.00075888681 -0.0075185526   512            16             16            -0.016920908    131072       
    134000   0.040100916   -38.478821      0.060149041   -38.418672     -0.069183316    0.012680807   -2.1076732e-05  512            16             16            -0.018841195    131072       
    136000   0.040103023   -38.478674      0.060152201   -38.418521     -0.065780985   -0.0153359     -0.010992304    512            16             16            -0.030703063    131072       
    138000   0.040208584   -38.478463      0.060310536   -38.418153     -0.041891268   -0.016549371   -0.0048281671   512            16             16            -0.021089602    131072       
    140000   0.040216837   -38.478543      0.060322916   -38.41822      -0.033354338    0.0082318881   0.0098039373   512            16             16            -0.0051061708   131072       
    142000   0.040101832   -38.478258      0.060150415   -38.418107     -0.053690174    0.020238028    0.010191825    512            16             16            -0.0077534402   131072       
    144000   0.040050056   -38.478406      0.060072754   -38.418334     -0.040822673   -0.0010531489   0.0051705796   512            16             16            -0.012235081    131072       
    146000   0.040014865   -38.479114      0.06001997    -38.419094     -0.043462577   -0.02528199    -0.0029130404   512            16             16            -0.023885869    131072       
    148000   0.03999533    -38.478646      0.059990667   -38.418655     -0.023913387    0.0084142499  -0.00095202996  512            16             16            -0.0054837224   131072       
    150000   0.040100582   -38.479396      0.060148539   -38.419248     -0.053164597    0.00013331864 -0.014125059    512            16             16            -0.022385446    131072       
    152000   0.040036338   -38.478973      0.060052177   -38.418921     -0.033800036    0.0042325596   0.029667869    512            16             16             3.3464349e-05  131072       
    154000   0.040075661   -38.479601      0.060111159   -38.41949      -0.061731952   -0.01535674    -0.0062392293   512            16             16            -0.027775974    131072       
    156000   0.040025831   -38.479444      0.060036418   -38.419407     -0.065136722   -0.014004185   -0.021663139    512            16             16            -0.033601348    131072       
    158000   0.039739765   -38.479079      0.059607335   -38.419471     -0.053817376   -0.0021532017  -0.016206955    512            16             16            -0.024059178    131072       
    160000   0.039898495   -38.478941      0.059845421   -38.419096     -0.020711622    0.01803003     0.0099530837   512            16             16             0.0024238306   131072       
    162000   0.040354917   -38.478958      0.060530027   -38.418427     -0.065571915   -0.013353716    0.00098747685  512            16             16            -0.025979385    131072       
    164000   0.040240311   -38.478989      0.060358125   -38.418631     -0.024220473   -0.0036650763  -0.0048508477   512            16             16            -0.010912132    131072       
    166000   0.040018872   -38.479412      0.06002598    -38.419386     -0.07067868     0.00020730908  0.0020362226   512            16             16            -0.022811716    131072       
    168000   0.040330517   -38.479229      0.060493429   -38.418735     -0.026819238    0.0049881556   0.0044310746   512            16             16            -0.0058000027   131072       
    170000   0.040060238   -38.479173      0.060088027   -38.419085     -0.041923459    0.0089254585  -0.015197174    512            16             16            -0.016065058    131072       
    172000   0.040119413   -38.479419      0.060176785   -38.419242     -0.028507601    0.0023288871  -0.0056091226   512            16             16            -0.010595945    131072       
    174000   0.040069083   -38.479686      0.060101293   -38.419585     -0.045305936   -0.021706317   -0.015011592    512            16             16            -0.027341282    131072       
    176000   0.039988461   -38.479812      0.059980365   -38.419832     -0.019227002   -0.014150547   -0.017981264    512            16             16            -0.017119604    131072       
    178000   0.040173192   -38.478961      0.060257451   -38.418703     -0.011812304    0.029488854   -0.0053684816   512            16             16             0.0041026896   131072       
    180000   0.040098486   -38.479118      0.060145397   -38.418973     -0.047839437   -0.0013909999  -0.014434787    512            16             16            -0.021221741    131072       
    182000   0.039455695   -38.479571      0.059181247   -38.42039      -0.048711092   -0.020982066   -0.011621995    512            16             16            -0.027105051    131072       
    184000   0.039847364   -38.479729      0.059768728   -38.419961     -0.062951616   -0.033083484   -0.021338086    512            16             16            -0.039124395    131072       
    186000   0.040364681   -38.479705      0.060544673   -38.419161     -0.0039582722   0.010521434   -0.00027653439  512            16             16             0.0020955424   131072       
    188000   0.039395593   -38.479903      0.059091098   -38.420812     -0.019473351    0.0012754179  -0.0022847622   512            16             16            -0.0068275651   131072       
    190000   0.039983874   -38.480817      0.059973484   -38.420843     -0.041764432    0.0069879994  -0.0077396736   512            16             16            -0.014172035    131072       
    192000   0.040136326   -38.480574      0.060202153   -38.420371     -0.044206812    0.014762271    0.016095459    512            16             16            -0.0044496938   131072       
    194000   0.0398473     -38.481061      0.059768631   -38.421293     -0.014874857    0.0051962827   0.0078693211   512            16             16            -0.00060308441  131072       
    196000   0.039884201   -38.480521      0.059823981   -38.420697     -0.053348236   -0.013395122   -0.011178925    512            16             16            -0.025974094    131072       
    198000   0.040239321   -38.481341      0.06035664    -38.420984     -0.03983959     0.0035031206   0.010914003    512            16             16            -0.0084741556   131072       
    200000   0.039801428   -38.480478      0.059699827   -38.420778     -0.047971205   -0.004829544   -0.0082357574   512            16             16            -0.020345502    131072       
Loop time of 1499.29 on 1 procs for 200000 steps with 25781 atoms

Performance: 11525.447 tau/day, 133.396 timesteps/s, 3.439 Matom-step/s
99.2% CPU use with 1 MPI tasks x 1 OpenMP threads

MPI task timing breakdown:
Section |  min time  |  avg time  |  max time  |%varavg| %total
---------------------------------------------------------------
Pair    | 1373.9     | 1373.9     | 1373.9     |   0.0 | 91.63
Neigh   | 21.625     | 21.625     | 21.625     |   0.0 |  1.44
Comm    | 18.978     | 18.978     | 18.978     |   0.0 |  1.27
Output  | 0.18035    | 0.18035    | 0.18035    |   0.0 |  0.01
Modify  | 67.037     | 67.037     | 67.037     |   0.0 |  4.47
Other   |            | 17.62      |            |       |  1.18

Nlocal:          25781 ave       25781 max       25781 min
Histogram: 1 0 0 0 0 0 0 0 0 0
Nghost:          19184 ave       19184 max       19184 min
Histogram: 1 0 0 0 0 0 0 0 0 0
Neighs:         376340 ave      376340 max      376340 min
Histogram: 1 0 0 0 0 0 0 0 0 0

Total # of neighbors = 376340
Ave neighs/atom = 14.597572
Neighbor list builds = 1379
Dangerous builds = 0
unfix           1

################P change into 0.001######################
variable        pressurenow equal press
#fix             1 all npt temp ${tf} ${tf} 0.01 iso ${pressurenow} 0.001 10
fix             1 all npt temp ${tf} ${tf} 0.01 x 0.0 0.0 5.0 y ${pressurenow} 0.001 10 z ${pressurenow} 0.001 10
fix             1 all npt temp 0.04 ${tf} 0.01 x 0.0 0.0 5.0 y ${pressurenow} 0.001 10 z ${pressurenow} 0.001 10
fix             1 all npt temp 0.04 0.04 0.01 x 0.0 0.0 5.0 y ${pressurenow} 0.001 10 z ${pressurenow} 0.001 10
fix             1 all npt temp 0.04 0.04 0.01 x 0.0 0.0 5.0 y -0.0203455020987797 0.001 10 z ${pressurenow} 0.001 10
fix             1 all npt temp 0.04 0.04 0.01 x 0.0 0.0 5.0 y -0.0203455020987797 0.001 10 z -0.0203455020987797 0.001 10

run             100000
Generated 0 of 36 mixed pair_coeff terms from geometric mixing rule
Per MPI rank memory allocation (min/avg/max) = 19.58 | 19.58 | 19.58 Mbytes
   Step          Temp          PotEng         KinEng         TotEng          Pxx            Pyy            Pzz             Lx             Ly             Lz           Press          Volume    
    200000   0.039801428   -38.480478      0.059699827   -38.420778     -0.047971205   -0.004829544   -0.0082357574   512            16             16            -0.020345502    131072       
    202000   0.040063615   -38.481578      0.060093091   -38.421484     -0.014356494   -0.004854474   -0.0083738585   505.42728      16.205466      16.202603     -0.009194942    132710.41    
    204000   0.039936748   -38.48234       0.059902799   -38.422437     -0.0093293514  -7.6621325e-05  0.011164888    500.29136      16.386417      16.381685      0.00058630518  134296.77    
    206000   0.040297465   -38.48206       0.060443852   -38.421616     -0.024081381    0.010199576   -0.0092783008   496.74568      16.56249       16.556892     -0.0077200351   136219.27    
    208000   0.040459872   -38.483433      0.060687454   -38.422746     -0.0099806945   0.0016152151  -0.001103537    494.0423       16.735361      16.727689     -0.0031563388   138304.14    
    210000   0.039826365   -38.482709      0.05973723    -38.422972      0.018279209    0.0039239083   0.0024456948   491.87409      16.904123      16.895847      0.0082162708   140483.9     
    212000   0.04026921    -38.483207      0.060401472   -38.422806     -0.018667034   -0.0098931844  -0.0069607134   490.0967       17.070919      17.062159     -0.011840311    142748.86    
    214000   0.040101521   -38.483003      0.060149948   -38.422853     -0.013744442    0.0050082272  -0.0018653423   488.59058      17.237071      17.226128     -0.0035338525   145076.22    
    216000   0.040299464   -38.483428      0.060446852   -38.422981      0.0070609433  -0.00030922856 -0.00090770503  487.5383       17.402548      17.390324      0.0019480032   147546.61    
    218000   0.039749998   -38.48314       0.059622684   -38.423518     -0.014329912   -0.021135713   -0.028772126    486.40758      17.566895      17.552759     -0.021412584    149982.55    
    220000   0.04004899    -38.483319      0.060071155   -38.423248     -0.015072369   -0.0025614837  -0.011294857    485.46226      17.729845      17.713721     -0.0096429031   152465.02    
    222000   0.040026957   -38.483865      0.060038107   -38.423827     -0.011638705   -0.028709601   -0.0058142581   484.65114      17.892396      17.873746     -0.015387521    154993.44    
    224000   0.040256795   -38.483151      0.06038285    -38.422768     -0.0021303635  -0.004099147   -0.01134192     484.18966      18.053785      18.034225     -0.0058571435   157645.39    
    226000   0.039728892   -38.483009      0.059591027   -38.423418     -0.010745034   -0.0027511402   0.0043770633   483.86466      18.214138      18.193495     -0.0030397036   160342.51    
    228000   0.039687616   -38.483347      0.059529115   -38.423817     -0.00081005607  0.015360455    0.0053943548   483.4652       18.374117      18.352966      0.0066482512   163033.91    
    230000   0.040126846   -38.483748      0.060187934   -38.42356      -0.002846364   -0.017224763   -0.0055265634   482.91739      18.533013      18.511621     -0.0085325635   165677.42    
    232000   0.039385071   -38.483418      0.059075315   -38.424343      0.01610014     0.001974104    0.0072879017   482.7398       18.691331      18.66819       0.0084540486   168444       
    234000   0.040191525   -38.483539      0.060284949   -38.423254     -0.0068871173   0.0057224133  -0.013561194    482.55949      18.848497      18.823397     -0.0049086328   171208.6     
    236000   0.039891418   -38.482943      0.059834806   -38.423108      0.00070890485 -0.014490436    0.0037927971   482.27105      19.005744      18.978913     -0.0033295781   173959.2     
    238000   0.040217431   -38.483037      0.060323807   -38.422713     -0.0069602224  -0.0012786871  -0.0014073036   482.05109      19.160864      19.132486     -0.0032154044   176717.5     
    240000   0.039878716   -38.483967      0.059815754   -38.424151     -0.0032479932   0.0079747538   0.012742683    481.71643      19.31488       19.284519      0.0058231477   179428.86    
    242000   0.040068482   -38.48386       0.060100391   -38.423759     -0.0042229922  -0.0085992542  -0.0015253806   481.57835      19.467971      19.435849     -0.0047825423   182217.95    
    244000   0.039780527   -38.483908      0.059668477   -38.424239     -0.0043225368   0.014419472    0.0060024898   481.2144       19.619582      19.585412      0.0053664751   184910.29    
    246000   0.040242131   -38.483747      0.060360856   -38.423386      0.0075349893  -0.0024808108  -0.0010311182   481.29024      19.769329      19.733692      0.0013410201   187761.84    
    248000   0.03999881    -38.484198      0.059995888   -38.424202     -0.012356774    0.0021135671   0.00051399354  481.0064       19.917926      19.879859     -0.0032430711   190461.97    
    250000   0.03993667    -38.483044      0.059902681   -38.423141     -0.0099347442  -0.013482413   -0.0075378496   480.719        20.064357      20.02554      -0.010318336    193152.69    
    252000   0.039987541   -38.484195      0.059978984   -38.424217     -0.0017963731   0.0018501051  -0.0044560173   480.45144      20.208443      20.167336     -0.0014674284   195808.2     
    254000   0.040059895   -38.484079      0.060087511   -38.423992      0.012712422   -0.0097675603   0.0068231848   480.36319      20.35123       20.307568      0.0032560155   198526.42    
    256000   0.040077504   -38.48395       0.060113924   -38.423836     -0.0010772124  -0.0048705497  -0.010652428    480.07077      20.49187       20.445929     -0.0055333966   201137.81    
    258000   0.040345771   -38.483887      0.060516309   -38.42337       0.011258522   -0.0017521868  -0.0042479486   479.82347      20.629693      20.581225      0.0017527955   203725.53    
    260000   0.040206732   -38.484108      0.060307758   -38.4238       -0.00071092658  0.00489012    -0.002194453    479.52465      20.76492       20.713436      0.00066158013  206249.71    
    262000   0.040193089   -38.483909      0.060287295   -38.423621     -0.0022228116  -0.013897963   -0.011530056    479.09698      20.897364      20.842342     -0.0092169435   208670.7     
    264000   0.040107472   -38.483546      0.060158874   -38.423387      0.0039942176   0.0052412935  -0.0042209104   478.72804      21.024717      20.967727      0.0016715336   211042.73    
    266000   0.039838995   -38.483754      0.059756174   -38.423998     -0.0036955833   0.0027569652   0.0095679912   478.10576      21.150045      21.090567      0.0028764577   213266.94    
    268000   0.039809101   -38.483763      0.059711335   -38.424051     -0.012627515   -0.0054801815   0.004307799    477.61025      21.270591      21.208547     -0.0045999657   215458.74    
    270000   0.040133735   -38.484384      0.060198268   -38.424185      0.014810195    0.0091330528   0.0026881396   476.76787      21.387372      21.322743      0.0088771292   217423.99    
    272000   0.039679614   -38.484651      0.059517113   -38.425134      0.012120152    0.012303586    0.0056640179   475.89587      21.499555      21.432236      0.010029252    219284.99    
    274000   0.039643328   -38.484325      0.059462686   -38.424862     -0.00062794882 -0.010767904   -0.01417582     475.54763      21.607691      21.538552     -0.0085238911   221319.1     
    276000   0.039973026   -38.48455       0.059957213   -38.424593     -0.021294157   -0.0063553903  -0.0044716653   474.992        21.71152       21.638289     -0.010707071    223151.31    
    278000   0.039835448   -38.484903      0.059750854   -38.425152     -0.0044401779   0.013100855    0.0070387039   473.97316      21.805196      21.731097      0.005233127    224592.58    
    280000   0.040333993   -38.484583      0.060498642   -38.424085     -0.0032038659  -0.0025349951   0.0023395765   472.9311       21.89671       21.816443     -0.0011330948   225923.12    
    282000   0.039889933   -38.484406      0.059832578   -38.424573      0.0050316736   0.0034259807   0.0034443066   471.85177      21.9781        21.89988       0.0039673203   227110.64    
    284000   0.040070844   -38.484452      0.060103934   -38.424348      0.0059914152   0.0017805975   0.011683019    470.84603      22.052942      21.973467      0.0064850107   228162.37    
    286000   0.040058486   -38.484952      0.060085399   -38.424866     -0.028546478   -0.002615069   -0.0033928002   469.79546      22.120082      22.038362     -0.011518116    229020.76    
    288000   0.03989673    -38.485236      0.059842773   -38.425394      0.015360332    0.014116246    0.0082096206   468.51108      22.178399      22.092604      0.012562066    229560.39    
    290000   0.040398309   -38.484957      0.060595113   -38.424362     -0.0015787601   0.0068097896   0.0040645146   467.29131      22.224929      22.13806       0.0030985147   229915.19    
    292000   0.040210723   -38.485365      0.060313745   -38.425051      0.009802123    0.0016859703   0.00080612959  465.91646      22.256171      22.166968      0.0040980743   229860.74    
    294000   0.039908408   -38.48519       0.05986029    -38.425329     -0.0078548581   0.00043879608 -0.0063710395   464.06027      22.274538      22.185322     -0.0045957005   229323.64    
    296000   0.039962831   -38.485576      0.059941922   -38.425634      0.0072726276  -0.0045038904   0.0082105313   462.63679      22.272603      22.181319      0.0036597562   228559.1     
    298000   0.039860358   -38.484992      0.059788218   -38.425204      0.012891635   -0.0001085106  -0.0047253219   460.94012      22.243565      22.154729      0.0026859342   227151.37    
    300000   0.040392936   -38.485338      0.060587055   -38.424751     -0.022560782   -0.011736576   -0.0042484347   459.28434      22.195055      22.105756     -0.012848597    225342.57    
Loop time of 835.17 on 1 procs for 100000 steps with 25781 atoms

Performance: 10345.199 tau/day, 119.736 timesteps/s, 3.087 Matom-step/s
100.0% CPU use with 1 MPI tasks x 1 OpenMP threads

MPI task timing breakdown:
Section |  min time  |  avg time  |  max time  |%varavg| %total
---------------------------------------------------------------
Pair    | 732.26     | 732.26     | 732.26     |   0.0 | 87.68
Neigh   | 7.3061     | 7.3061     | 7.3061     |   0.0 |  0.87
Comm    | 5.5863     | 5.5863     | 5.5863     |   0.0 |  0.67
Output  | 0.12002    | 0.12002    | 0.12002    |   0.0 |  0.01
Modify  | 81.947     | 81.947     | 81.947     |   0.0 |  9.81
Other   |            | 7.952      |            |       |  0.95

Nlocal:          25781 ave       25781 max       25781 min
Histogram: 1 0 0 0 0 0 0 0 0 0
Nghost:          12890 ave       12890 max       12890 min
Histogram: 1 0 0 0 0 0 0 0 0 0
Neighs:         378822 ave      378822 max      378822 min
Histogram: 1 0 0 0 0 0 0 0 0 0

Total # of neighbors = 378822
Ave neighs/atom = 14.693844
Neighbor list builds = 393
Dangerous builds = 0
unfix           1

################the first compression at low P (P = 0.001) and no dehydration##############
#fix             1 all npt temp ${tf} ${tf} 0.01 iso 0.001 0.001 10
fix             1 all npt temp ${tf} ${tf} 0.01 x 0.0 0.0 5.0 y 0.001 0.001 10 z 0.001 0.001 10
fix             1 all npt temp 0.04 ${tf} 0.01 x 0.0 0.0 5.0 y 0.001 0.001 10 z 0.001 0.001 10
fix             1 all npt temp 0.04 0.04 0.01 x 0.0 0.0 5.0 y 0.001 0.001 10 z 0.001 0.001 10

#variable a loop 400
#label loop
#                group g5 type 5 5

#variable        n5 equal count(g5)
#variable        rmn equal 1789 #dehydration
#variable        fraction equal ${rmn}/${n5}
#                set group g5 type/fraction 9 ${fraction} 54321

#                group g9 type 9 9
#                delete_atoms group g9
#                group g5 delete
#                group g9 delete
run             2000000
Generated 0 of 36 mixed pair_coeff terms from geometric mixing rule
Per MPI rank memory allocation (min/avg/max) = 19.71 | 19.71 | 19.71 Mbytes
   Step          Temp          PotEng         KinEng         TotEng          Pxx            Pyy            Pzz             Lx             Ly             Lz           Press          Volume    
    300000   0.040392936   -38.485338      0.060587055   -38.424751     -0.022560782   -0.011736576   -0.0042484347   459.28434      22.195055      22.105756     -0.012848597    225342.57    
    302000   0.040113713   -38.485243      0.060168236   -38.425075      0.0010527602   0.012399643   -0.0050565569   457.70374      22.106946      22.01749       0.0027986156   222782.48    
    304000   0.040081735   -38.485977      0.06012027    -38.425856     -0.013885917    0.005716336   -0.0088847088   456.92621      22.006681      21.913081     -0.0056847631   220345.44    
    306000   0.039917497   -38.48595       0.059873923   -38.426076     -0.0038116155  -0.0025978462  -0.0053774563   456.28998      21.913476      21.821353     -0.0039289726   218189.52    
    308000   0.039665075   -38.485565      0.059495305   -38.42607      -0.016712429   -0.0056281829  -0.0062018017   455.42272      21.829491      21.736767     -0.0095141378   216099.25    
    310000   0.039899764   -38.486115      0.059847324   -38.426268      0.019390713   -0.0071057349  -0.00083189268  454.44046      21.747324      21.654742      0.0038176951   214010.86    
    312000   0.040056567   -38.486529      0.060082521   -38.426446      0.023530019    0.0090000746   0.0071767626   453.80677      21.668812      21.575179      0.013235619    212158.52    
    314000   0.039950017   -38.486622      0.059922701   -38.426699     -0.007007186    0.0022410687  -0.0067340841   453.14384      21.588974      21.494949     -0.0038334005   210283.16    
    316000   0.039944287   -38.486301      0.059914107   -38.426387      0.0016860355   0.0073341453  -0.001797235    452.6439       21.515769      21.416229      0.0024076486   208572.26    
    318000   0.040008821   -38.486968      0.060010903   -38.426957      0.00071015205  0.0065748112   0.0024646326   451.76286      21.441054      21.338409      0.0032498653   206689.63    
    320000   0.039690092   -38.486536      0.059532828   -38.427003     -0.013509467   -0.010665565   -0.0059492033   451.37276      21.364867      21.267691     -0.010041412    205095.38    
    322000   0.039842238   -38.486275      0.059761038   -38.426514      0.00017863302  0.0014827657   0.0032712494   450.80237      21.290661      21.197269      0.0016442161   203448.86    
    324000   0.039880422   -38.486773      0.059818313   -38.426955     -0.0015644603   0.0013675159  -0.002131489    450.18151      21.218035      21.125384     -0.00077614448  201788.97    
    326000   0.040378953   -38.486903      0.060566081   -38.426337     -0.0061950892  -0.0060306018   0.00010375417  449.61673      21.148104      21.056047     -0.0040406456   200212.29    
    328000   0.039834381   -38.487164      0.059749253   -38.427415     -0.025270854   -0.0037361465  -0.0099010559   448.75629      21.079005      20.9853       -0.012969352    198507.01    
    330000   0.040023217   -38.487113      0.060032497   -38.42708       0.017928058   -0.0078124853  -0.0080313221   447.83853      21.008372      20.918002      0.00069475013  196804.06    
    332000   0.040112536   -38.487162      0.060166471   -38.426996      0.0060081463  -0.0012280498  -0.016329301    447.33705      20.940144      20.849545     -0.003849735    195303.99    
    334000   0.039838938   -38.48641       0.059756089   -38.426654     -0.0055635921   3.6082388e-05  0.00027181865  447.09591      20.873962      20.782608     -0.001751897    193957.08    
    336000   0.040060431   -38.486562      0.060088315   -38.426474      0.0090351351  -0.00045638755  0.0030261653   446.5772       20.806062      20.717467      0.0038683043   192496.61    
    338000   0.03997926    -38.486667      0.059966564   -38.4267       -0.0029597672  -0.0025672801   0.0034457769   446.21337      20.737648      20.647814     -0.00069375681  191062.81    
    340000   0.040148832   -38.487051      0.060220912   -38.42683      -0.010201582   -0.0045753109   0.0040707301   446.15043      20.675001      20.580798     -0.0035687211   189840.58    
    342000   0.040101039   -38.487351      0.060149226   -38.427202     -0.0067396286  -0.0039880987  -0.010415178    445.90673      20.611512      20.517764     -0.007047635    188574.9     
    344000   0.039740786   -38.486484      0.059608867   -38.426875     -0.003875142    0.0075497406   0.00025679676  445.27245      20.547639      20.450398      0.0013104651   187106.77    
    346000   0.039924024   -38.487009      0.059883713   -38.427125      0.0026929767   0.0011659076  -0.0031450266   444.73604      20.484665      20.389005      0.00023795256  185749.31    
    348000   0.040253033   -38.487057      0.060377208   -38.42668      -0.0014381925   0.0072578581   0.018985602    444.46956      20.420855      20.325436      0.0082684226   184482.77    
    350000   0.039607925   -38.487098      0.059409583   -38.427688      0.0066048047  -0.00011228851 -0.0001858904   444.39024      20.358797      20.266147      0.0021022086   183352.91    
    352000   0.040081367   -38.486654      0.060119718   -38.426535      0.0099120427  -0.004704862    0.0058590024   444.2141       20.298805      20.204072      0.0036887277   182180.43    
    354000   0.039942858   -38.487665      0.059911963   -38.427753     -0.010816377   -0.0095340744  -0.013658849    444.17882      20.236169      20.142778     -0.011336433    181052.91    
    356000   0.039849585   -38.488095      0.059772058   -38.428323      0.00023621711  0.0017584356   0.0068516373   443.71552      20.173703      20.079868      0.0029487633   179742.64    
    358000   0.040153331   -38.487332      0.060227661   -38.427104      0.0048469052   0.0056367703   0.0040893745   443.69502      20.111274      20.022206      0.0048576833   178663.59    
    360000   0.040203161   -38.48783       0.060302403   -38.427528      0.015161106    0.014560664    0.011548938    443.39802      20.049722      19.965037      0.013756903    177489.32    
    362000   0.039836179   -38.486981      0.059751951   -38.427229     -0.014210671    0.012106707    0.0033666436   443.04104      19.991791      19.906326      0.00042089318  176313.99    
    364000   0.040198438   -38.487233      0.060295319   -38.426938     -0.0040520935   0.00065217807  0.0063847887   442.6361       19.931773      19.848844      0.00099495776  175116.87    
    366000   0.039940304   -38.487251      0.059908132   -38.427342      0.001070278   -0.0070497872  -0.01386467     442.21981      19.874338      19.790934     -0.0066147265   173939.08    
    368000   0.039678115   -38.487977      0.059514864   -38.428463     -0.01067879    -0.0044310618  -0.0073838573   441.95578      19.817741      19.735912     -0.007497903    172858.28    
    370000   0.040051366   -38.487941      0.060074719   -38.427866      0.012380947   -0.015779629   -0.011094733    441.82101      19.756935      19.677187     -0.0048311382   171762.74    
    372000   0.039986469   -38.488484      0.059977376   -38.428507     -0.010886681   -0.0154779      0.003930609    441.6369       19.697773      19.620187     -0.0074779906   170681.17    
    374000   0.039881189   -38.488632      0.059819463   -38.428813     -0.0014361528   0.0014475959  -0.01029995     441.32483      19.643981      19.563089     -0.0034295024   169599.78    
    376000   0.040007777   -38.489073      0.060009338   -38.429063      0.010682463   -0.003933146   -0.0012092242   441.04032      19.590615      19.508621      0.0018466975   168559.38    
    378000   0.040028071   -38.488538      0.060039778   -38.428498      0.008704563   -0.005108478   -0.010808113    440.95446      19.534497      19.455299     -0.0024040092   167584.51    
    380000   0.039962522   -38.488807      0.059941457   -38.428865      0.0071604923   0.017261506    0.002932625    441.21815      19.478013      19.399639      0.0091182078   166721.52    
    382000   0.040025707   -38.489082      0.060036232   -38.429046      0.0037658222  -0.00081372433 -0.0020200657   440.94676      19.425511      19.344625      0.0003106774   165698.63    
    384000   0.040185183   -38.489486      0.060275437   -38.429211      0.0091508393   0.011781457   -0.0025370151   440.95619      19.366945      19.291684      0.0061317604   164750.48    
    386000   0.039970983   -38.489344      0.059954148   -38.42939      -0.010725378    0.0093044194  -0.014951012    440.81203      19.311159      19.240209     -0.0054573234   163784.03    
    388000   0.040185787   -38.489112      0.060276343   -38.428835     -0.0094425441  -0.015693026   -0.0083122087   440.51929      19.25263       19.184486     -0.01114926     162706.6     
    390000   0.03994941    -38.489448      0.05992179    -38.429527     -0.024324332   -0.0098763372  -0.0085576118   440.40844      19.198853      19.131639     -0.01425276     161764.45    
    392000   0.04003189    -38.489332      0.060045506   -38.429286      0.0033501795   0.0048182433  -0.00094562981  440.04433      19.145927      19.077744      0.0024075977   160731.08    
    394000   0.039560543   -38.488228      0.059338512   -38.428889      0.025679895    0.0050675779   0.0099325146   439.58484      19.093393      19.025905      0.013559996    159687.58    
    396000   0.039849771   -38.488657      0.059772338   -38.428885     -0.0093453373   0.00036338024  0.014937264    439.33174      19.039178      18.9735        0.0019851023   158704.12    
    398000   0.040137576   -38.488545      0.060204029   -38.428341      0.018376475   -0.0083518897   0.0058264414   438.97757      18.986048      18.921601      0.0052836755   157701.13    
    400000   0.039658284   -38.488935      0.059485119   -38.42945       0.007055301   -0.023176788    0.0063561264   438.82086      18.933364      18.868701     -0.0032551204   156767.87    
    402000   0.040007349   -38.488943      0.060008696   -38.428934     -0.014122512    0.0026429701  -0.0011249162   438.51218      18.881441      18.816752     -0.0042014859   155797.85    
    404000   0.039544646   -38.488911      0.059314669   -38.429596      0.013700157   -0.0052439172   0.020119808    438.22651      18.829178      18.766989      0.0095253493   154854.77    
    406000   0.040297652   -38.48903       0.060444134   -38.428586     -0.024897367    0.0035110217   0.0018321199   438.19685      18.781252      18.713539     -0.0065180753   154010.28    
    408000   0.040199035   -38.489221      0.060296214   -38.428924      0.012077026    0.016296299    0.011298538    438.14657      18.727455      18.662502      0.013223954    153132.74    
    410000   0.039911168   -38.489276      0.05986443    -38.429411     -0.020440922   -0.008613668    0.0053918524   437.99133      18.676091      18.612135     -0.0078875793   152246.63    
    412000   0.040197762   -38.48887       0.060294304   -38.428576      0.0090222402   0.010754156   -0.0016458414   438.0318       18.626655      18.563837      0.0060435181   151463.59    
    414000   0.039954601   -38.489507      0.059929577   -38.429578      0.017909809    0.011194895    0.011970114    437.75066      18.576597      18.510509      0.013691606    150525.94    
    416000   0.039924059   -38.48965       0.059883766   -38.429766      0.0013275933  -0.011579356   -0.006138936    437.7031       18.525651      18.458201     -0.0054635661   149672.65    
    418000   0.039824741   -38.489455      0.059734794   -38.42972       0.0008205061   0.0053740117  -0.013626434    437.5309       18.473643      18.409472     -0.0024773056   148799.88    
    420000   0.039915727   -38.489224      0.059871268   -38.429353     -0.021551115   -0.014658142   -0.023041012    437.24915      18.426231      18.359963     -0.01975009     147923.54    
    422000   0.039978312   -38.490229      0.059965142   -38.430264     -0.0097711114   0.017570574   -0.0060477543   437.16477      18.377519      18.313442      0.00058390262  147130.27    
    424000   0.039815299   -38.489193      0.059720632   -38.429473      0.0030802374  -0.010107588   -0.0051332648   437.17745      18.328554      18.262092     -0.0040535386   146331.05    
    426000   0.040140575   -38.489697      0.060208527   -38.429489     -0.0071846091   0.010552962    0.0042433167   436.97618      18.278177      18.21594       0.0025372233   145493.04    
    428000   0.039687783   -38.489393      0.059529365   -38.429863      0.0031196016   0.0019838831   0.011122659    436.79918      18.229711      18.172857      0.0054087144   144705.42    
    430000   0.039928946   -38.489835      0.059891096   -38.429944     -0.00034814008 -0.0010527528   0.010482121    436.75552      18.182088      18.124785      0.0030270761   143931.22    
    432000   0.040459874   -38.48975       0.060687457   -38.429062      0.0052686861   0.0084657558  -0.0039682694   436.69111      18.133526      18.077579      0.0032553908   143151.83    
    434000   0.039978274   -38.489635      0.059965085   -38.429669     -0.0075277125  -0.009715139   -0.023122544    436.35103      18.088068      18.032202     -0.013455132    142323.61    
    436000   0.039540968   -38.490005      0.059309152   -38.430696      0.0049660752   0.022100521   -0.0025291795   436.11438      18.040284      17.986601      0.008179139    141511.88    
    438000   0.040204078   -38.489663      0.060303778   -38.429359      0.0021926847   0.0080078264  -0.014336623    436.13965      17.992385      17.938631     -0.001378704    140767.89    
    440000   0.040130036   -38.489783      0.060192719   -38.42959       0.016775126    0.0023307599   0.0039962828   436.09999      17.944963      17.892331      0.007700723    140021.77    
    442000   0.039900222   -38.4893        0.059848011   -38.429452      0.0050011801  -0.0010425349   0.009453384    435.42869      17.896636      17.850242      0.0044706764   139101.74    
    444000   0.040343157   -38.490599      0.060512389   -38.430086      0.0044843031   0.0041562209  -0.005726854    435.18224      17.850149      17.802422      0.00097122333  138290.42    
    446000   0.039831082   -38.490409      0.059744306   -38.430664     -0.016828973   -0.012592555    8.4733722e-05  435.09085      17.80761       17.758213     -0.0097789313   137589.35    
    448000   0.039828607   -38.489634      0.059740593   -38.429894     -0.024573644    0.0013068365  -0.0014701932   434.79974      17.758031      17.712363     -0.0082456669   136760.47    
    450000   0.040052284   -38.489659      0.060076095   -38.429583      0.011888478    0.0013699136   0.013366044    434.74784      17.71358       17.665817      0.0088748117   136043.4     
    452000   0.040075544   -38.490188      0.060110984   -38.430077     -0.017206466    0.0012883773   0.00037834499  434.83883      17.668381      17.622004     -0.0051799146   135388.06    
    454000   0.039920821   -38.489631      0.059878909   -38.429752     -0.00391965    -0.012331544   -0.00087053919  434.59496      17.623313      17.575271     -0.0057072445   134609.05    
    456000   0.03970676    -38.489853      0.059557829   -38.430295     -0.0011824309  -0.0019392784   0.014060218    434.42401      17.58179       17.530248      0.0036461696   133895.19    
    458000   0.039711035   -38.489645      0.059564243   -38.43008       0.0081151544   0.0107837     -0.0031923705   434.40604      17.535721      17.487407      0.0052354945   133212.48    
    460000   0.040314014   -38.490273      0.060468675   -38.429804      0.02017593     0.015748749    0.013597865    434.23754      17.487652      17.443566      0.016507515    132462.87    
    462000   0.039931147   -38.4898        0.059894398   -38.429905      0.012214513   -0.011659094   -0.0042367452   434.62979      17.44465       17.405987     -0.0012271089   131971.57    
    464000   0.039955515   -38.490616      0.059930949   -38.430685     -0.00072010475  0.018272383    0.019670991    434.30987      17.400052      17.360326      0.012407757    131192.24    
    466000   0.040340973   -38.490272      0.060509112   -38.429762     -0.0075329936   0.014966526   -0.0019908604   434.14351      17.355562      17.319088      0.001814224    130495.95    
    468000   0.040210978   -38.49          0.060314128   -38.429686      0.013181758   -0.026057116   -0.0029806886   434.00584      17.312825      17.278661     -0.005285349    129829.56    
    470000   0.039870079   -38.489473      0.059802799   -38.42967       0.019584956    0.018867429    0.0081029665   434.23948      17.272948      17.232348      0.015518451    129252.88    
    472000   0.039559079   -38.489907      0.059336316   -38.43057      -0.019554548   -0.011787407   -0.013476447    433.97142      17.230075      17.190106     -0.014939467    128536.62    
    474000   0.039960766   -38.489869      0.059938825   -38.429931      0.016642746    0.008233366    0.0083943827   433.90018      17.184474      17.149836      0.011090165    127875.12    
    476000   0.040114377   -38.489951      0.060169232   -38.429782     -0.0038654903   0.0016448736   0.0068403995   433.76914      17.142695      17.108196      0.0015399276   127216.06    
    478000   0.040219977   -38.490734      0.060327626   -38.430406     -0.036347486    0.0028013262  -0.0078039718   433.92433      17.097034      17.069523     -0.013783377    126635.7     
    480000   0.040040399   -38.490439      0.060058269   -38.430381      0.016778521   -0.015112016   -0.0092065511   433.95699      17.056404      17.032011     -0.002513349    126066.61    
    482000   0.04031485    -38.490467      0.06046993    -38.429997     -0.012336999   -0.0016632938  -0.0089440916   433.81394      17.017408      16.991894     -0.0076481283   125440.76    
    484000   0.040173726   -38.490521      0.060258252   -38.430263     -0.00058925274 -0.012324307   -0.011315531    433.66904      16.973681      16.951466     -0.0080763633   124779.06    
    486000   0.039931943   -38.490005      0.059895591   -38.430109     -0.013144945   -0.007573276    0.0032810189   433.79979      16.932051      16.913404     -0.0058124007   124230.98    
    488000   0.0403897     -38.490809      0.0605822     -38.430227     -0.0079567292   0.011051369   -0.0014051947   433.7386       16.885881      16.873075      0.00056314851  123579.39    
    490000   0.039710674   -38.49033       0.059563701   -38.430766      0.026436771   -0.0013872943  -0.00084631415  433.48844      16.845155      16.834054      0.008067721    122925.29    
    492000   0.040338196   -38.490063      0.060504947   -38.429558     -0.029814092    0.021562906   -0.010768006    433.2988       16.802376      16.793521     -0.0063397306   122264.38    
    494000   0.039993009   -38.490856      0.059987187   -38.430869     -0.0079426236  -0.0086964729  -0.0059904521   433.1449       16.76293       16.753251     -0.0075431829   121641.63    
    496000   0.04007314    -38.489839      0.060107379   -38.429732      0.0056520737  -0.0091074315   0.019276908    432.86921      16.719908      16.713096      0.0052738502   120961.58    
    498000   0.039977944   -38.489987      0.05996459    -38.430022     -0.002277696   -0.0069258464  -0.016123282    432.72829      16.679552      16.67962      -0.0084422746   120388.73    
    500000   0.039998828   -38.490325      0.059995915   -38.430329     -0.0028239842  -0.021783212   -0.022574315    432.50884      16.638177      16.640348     -0.01572717     119746.58    
    502000   0.040055147   -38.490457      0.060080391   -38.430377      0.023153937    0.014538491    0.0075853882   432.80466      16.595769      16.606505      0.015092605    119279.98    
    504000   0.039846752   -38.489971      0.05976781    -38.430203     -0.026599298    0.011580918   -0.0095425081   432.81549      16.553411      16.567473     -0.0081869627   118698.86    
    506000   0.040196532   -38.490618      0.060292459   -38.430326     -0.014748767   -0.003411772   -0.011622169    432.8587       16.513681      16.532689     -0.0099275694   118177.16    
    508000   0.039725769   -38.490706      0.059586342   -38.431119      0.054508395    0.013067966    0.020851322    432.85929      16.470883      16.496487      0.029475894    117612.93    
    510000   0.040089446   -38.491407      0.060131836   -38.431275      0.021193646    0.0097413445   0.02197598     432.82514      16.430921      16.45967       0.01763699     117056.49    
    512000   0.040015663   -38.491368      0.060021167   -38.431347     -0.010359556    0.0032555221   0.011222607    432.62794      16.392214      16.421349      0.0013728577   116455.77    
    514000   0.039937392   -38.492041      0.059903765   -38.432137      0.016616966    0.019367936   -0.021980231    432.50286      16.355934      16.38186       0.0046682237   115885.08    
    516000   0.04023036    -38.492558      0.060343199   -38.432215      0.036820847    0.0097760165   0.0082277745   432.542        16.316421      16.349542      0.018274879    115387.5     
    518000   0.040362008   -38.493031      0.060540663   -38.43249       0.039369702    0.010048877    0.024669763    432.54221      16.275738      16.311437      0.024696114    114831.6     
    520000   0.039866626   -38.492572      0.05979762    -38.432775      0.024936233   -0.00041947353  0.02620894     432.48177      16.233506      16.275214      0.016908567    114263.32    
    522000   0.040069263   -38.493306      0.060101562   -38.433204      0.009068265   -0.0064750965   0.0096923146   432.84812      16.196725      16.245267      0.004095161    113891.06    
    524000   0.039754231   -38.493828      0.059629034   -38.434199      0.030386056   -0.0040686397   0.023802983    433.32245      16.156712      16.207917      0.0167068      113472.69    
    526000   0.040279867   -38.494991      0.060417457   -38.434573      0.047308993   -0.016476099    0.00071754051  433.40928      16.120249      16.174869      0.010516812    113008.4     
    528000   0.040201837   -38.49515       0.060300417   -38.43485      -0.013747313   -0.019250369   -0.0068871648   433.4693       16.080381      16.136442     -0.013294949    112476.68    
    530000   0.039596354   -38.495427      0.059392227   -38.436034      0.012682886    0.00058718403  0.0090842112   433.59911      16.04194       16.101264      0.0074514271   111996.7     
    532000   0.040033412   -38.495278      0.060047789   -38.43523       0.019144292    0.0013839998   0.016893284    433.83007      16.005946      16.068486      0.012473859    111577.32    
    534000   0.040341524   -38.49519       0.060509939   -38.43468      -0.0014319716  -0.0087826006   0.0068034039   433.44784      15.970327      16.032762     -0.0011370561   110983.65    
    536000   0.040274834   -38.495675      0.060409908   -38.435265      0.0018758006  -0.0078211979  -0.0072114027   433.58706      15.933647      16.000738     -0.0043856      110543.07    
    538000   0.040684687   -38.494716      0.061024663   -38.433691     -0.014113452   -0.01063784    -0.0032952622   433.50061      15.895468      15.96299      -0.0093488514   109996.09    
    540000   0.040187679   -38.496529      0.06027918    -38.43625      -0.0041473035  -0.00081123608  0.0052264676   433.5069       15.859156      15.931777      8.9309352e-05  109531.82    
    542000   0.040123203   -38.496565      0.060182471   -38.436383     -0.0062699722  -0.0084485943  -0.015645346    433.57031      15.819954      15.900737     -0.010121304    109064.15    
    544000   0.040092679   -38.49574       0.060136686   -38.435603     -0.021606405   -0.0081892909  -0.00011140844  433.38299      15.780742      15.866578     -0.0099690348   108513.19    
    546000   0.040148987   -38.495853      0.060221144   -38.435631      0.015741494   -0.0051645183  -0.0088727593   433.16491      15.743929      15.833159      0.00056807198  107977.68    
    548000   0.040027659   -38.496205      0.060039159   -38.436165      0.029985485    0.007010922    0.013705583    433.14754      15.706151      15.798477      0.016900663    107478.31    
    550000   0.040191028   -38.49667       0.060284203   -38.436386      0.00047017531 -0.01287524    -0.00051153737  433.12758      15.667612      15.766701     -0.004305534    106994.01    
    552000   0.040158634   -38.495937      0.060235614   -38.435702      0.0029667129   0.002053929    0.013046709    433.28031      15.631763      15.736383      0.0060224503   106581.5     
    554000   0.040331236   -38.495982      0.060494507   -38.435488      0.031071279    0.020612285   -0.0066795743   433.30789      15.593328      15.702649      0.01500133     106098.28    
    556000   0.039889316   -38.496351      0.059831652   -38.436519      0.019896799   -0.0077103616   0.010526912    433.50945      15.556503      15.668567      0.0075711165   105667.11    
    558000   0.039960857   -38.496281      0.05993896    -38.436342     -0.0090991435   0.018091476   -0.0008852475   433.65308      15.520731      15.637147      0.0027023616   105247.58    
    560000   0.039914076   -38.496269      0.059868791   -38.4364       -0.0063117089   0.022013972    0.025462504    433.70556      15.485654      15.605424      0.013721589    104809.37    
    562000   0.039984121   -38.496142      0.059973855   -38.436168     -0.032235957   -0.017944039    0.00027758882  433.89684      15.449014      15.571757     -0.016634136    104381.82    
    564000   0.039890337   -38.496474      0.059833185   -38.436641      0.000457284   -0.001693094    6.4173327e-05  433.69465      15.414831      15.543396     -0.00039054557  103912.73    
    566000   0.040402813   -38.496285      0.060601869   -38.435684      0.016178785    0.013621537    0.009836985    433.58574      15.377972      15.509969      0.013212436    103415.34    
    568000   0.040030182   -38.496024      0.060042943   -38.435981     -0.016502571    0.001471627   -0.00095600118  433.61603      15.339536      15.47614      -0.0053289816   102939.06    
    570000   0.039792444   -38.496083      0.059686351   -38.436396     -0.024985638    0.0038809484  -0.019431537    433.93531      15.304604      15.439561     -0.013512076    102537.34    
    572000   0.040029113   -38.496204      0.060041341   -38.436162     -0.0026841935   0.022831304    0.0080747291   434.1551       15.271081      15.40967       0.0094072799   102166.38    
    574000   0.039932081   -38.496121      0.059895799   -38.436225     -0.0055048796   0.019040596    0.0027269285   434.06909      15.236556      15.374268      0.0054208818   101681.07    
    576000   0.03983917    -38.496446      0.059756437   -38.43669      -0.01502898     0.0093765198   0.0042511424   434.16217      15.204297      15.342434     -0.00046710603  101277.41    
    578000   0.040018984   -38.496504      0.060026147   -38.436478      0.01489765    -0.010126707    0.0007496868   434.03577      15.168556      15.308226      0.0018402099   100784.7     
    580000   0.040248261   -38.496068      0.060370049   -38.435698     -0.037195402    0.0065742291  -0.015383811    433.76373      15.136439      15.275667     -0.015334995    100294.51    
    582000   0.040016516   -38.496373      0.060022445   -38.43635      -0.016361233   -0.02030996     0.0090497264   433.74308      15.104645      15.243118     -0.0092071557   99865.825    
    584000   0.04040464    -38.496269      0.060604608   -38.435664      0.0098673824   0.015937362   -0.0061261118   433.53076      15.068191      15.210971      0.0065595443   99366.036    
    586000   0.039967959   -38.496186      0.059949613   -38.436237      0.015699825    0.019813527   -0.005038645    433.55376      15.032039      15.177756      0.010158235    98916.427    
    588000   0.039946122   -38.496436      0.059916859   -38.436519     -0.035595064    0.0013374767  -0.00037834298  433.56585      15.000627      15.145735     -0.01154531     98504.217    
    590000   0.040113899   -38.496422      0.060168514   -38.436253     -0.007813561   -0.001023459   -0.01402869     433.48277      14.966424      15.117885     -0.0076219035   98080.103    
    592000   0.039624519   -38.496693      0.059434473   -38.437258     -0.010416002    0.01409428     0.0044873873   433.79744      14.935818      15.084844      0.0027218883   97736.509    
    594000   0.040372973   -38.496057      0.06055711    -38.4355        0.0086613512   0.0022488749  -0.012014204    433.41211      14.902425      15.053901     -0.00036799263  97231.51     
    596000   0.040394222   -38.496139      0.060588983   -38.43555      -0.010546334    0.015658675    0.022010856    433.43301      14.869717      15.021425      0.0090410658   96813.477    
    598000   0.040065096   -38.496339      0.060095312   -38.436243     -0.0027858155   0.001027224    0.025636722    433.54426      14.835827      14.990791      0.0079593769   96420.581    
    600000   0.039990816   -38.496183      0.059983898   -38.436199     -0.0033246871  -0.0076645906  -0.011505557    433.52891      14.8043        14.958618     -0.0074982782   96005.789    
    602000   0.040443696   -38.496365      0.060663191   -38.435702     -0.014372378    0.0067644052   0.015571605    433.44828      14.772976      14.924323      0.002654544    95565.237    
    604000   0.040068335   -38.497087      0.060100172   -38.436987     -0.015392712   -0.027517588   -0.036348465    433.53164      14.740219      14.894721     -0.026419588    95182.496    
    606000   0.039222015   -38.496735      0.058830741   -38.437904      0.00015822836 -0.0039103595   0.03556428     433.38654      14.706844      14.865527      0.01060405     94749.126    
    608000   0.040114576   -38.496131      0.06016953    -38.435962     -0.0156503     -0.017351072   -0.0037401598   433.48282      14.672169      14.833801     -0.012247177    94344.948    
    610000   0.039988148   -38.496634      0.059979896   -38.436654     -0.00012816125 -0.013395278   -0.0086696101   433.54709      14.63951       14.802233     -0.0073976832   93948.542    
    612000   0.040112226   -38.496414      0.060166005   -38.436248     -0.019505385    0.0092551378   0.018232767    433.77526      14.606428      14.771262      0.0026608401   93589.347    
    614000   0.039957346   -38.496752      0.059933694   -38.436819      0.015513358    0.0044440707   0.013789096    433.87082      14.576609      14.744213      0.011248842    93247.79     
    616000   0.039887875   -38.496735      0.059829491   -38.436906     -0.019490147    0.019770825    0.0095098001   433.71766      14.542393      14.712547      0.0032634926   92796.342    
    618000   0.039653515   -38.496214      0.059477965   -38.436736     -0.00058732633 -0.0098508226  -0.013209975    433.78424      14.514116      14.681297     -0.007882708    92433.37     
    620000   0.039794528   -38.497458      0.059689476   -38.437768      0.00019779188 -0.0022319983   0.0021268267   433.80698      14.486037      14.646417      3.0873446e-05  92040.195    
    622000   0.039785799   -38.496743      0.059676384   -38.437067     -0.011805769   -0.010258449   -0.0023911263   433.91921      14.456664      14.613614     -0.0081517812   91671.555    
    624000   0.039804543   -38.49652       0.059704498   -38.436816     -0.0023032806   0.015495697    0.0029624953   433.57979      14.426034      14.580197      0.0053849706   91196.754    
    626000   0.039917819   -38.497171      0.059874406   -38.437296      0.0034194012   0.015618261    0.0055617932   433.82085      14.396885      14.54786       0.0081998184   90861.113    
    628000   0.03990358    -38.497056      0.059853049   -38.437203      0.024036899    0.002089532    0.0046218721   433.7124       14.365262      14.5163        0.010249434    90442.243    
    630000   0.039877413   -38.496659      0.059813799   -38.436845      0.016830751    0.01553696     0.014680633    433.5782       14.334572      14.482471      0.015682781    90010.842    
    632000   0.039814327   -38.497         0.059719174   -38.437281     -0.0048927274   0.012339852   -0.0019853079   433.59154      14.302888      14.454533      0.0018206057   89641.395    
    634000   0.040298976   -38.496967      0.060446119   -38.43652      -0.020475399    0.0029877768   0.0010673992   433.35914      14.275385      14.42088      -0.0054734075   89212.879    
    636000   0.04002546    -38.497083      0.060035861   -38.437047      0.016364972    0.0027507704   0.0015318992   433.39083      14.244798      14.386513      0.0068825473   88816.067    
    638000   0.039684252   -38.49715       0.059524069   -38.437626      0.01878659     0.027426301    0.028098779    433.37234      14.213365      14.35409       0.024770557    88416.591    
    640000   0.039574995   -38.497408      0.05936019    -38.438048      0.015524026    0.026533145    0.0081414355   433.45518      14.183373      14.323644      0.016732869    88059.704    
    642000   0.040119342   -38.497196      0.060176679   -38.437019      0.030231163   -0.014016964    0.030851319    433.67201      14.153613      14.29514       0.015688506    87743.937    
    644000   0.039641114   -38.497716      0.059459364   -38.438256      0.028644551   -0.015385578    0.017152509    433.85982      14.122128      14.261547      0.010137161    87380.841    
    646000   0.040248775   -38.498727      0.060370821   -38.438357      0.061867174    0.016900443    0.018469145    433.51337      14.091261      14.231789      0.032412254    86938.44     
    648000   0.039919633   -38.499616      0.059877127   -38.439739     -0.040102312   -0.0055027478  -0.036058335    433.3694       14.063882      14.199772     -0.027221132    86545.568    
    650000   0.040243758   -38.498832      0.060363295   -38.438469     -0.027978825    0.026032887   -0.0018853929   433.42154      14.035455      14.169864     -0.0012771103   86199.087    
    652000   0.040408781   -38.499361      0.06061082    -38.43875      -0.011438173    0.014124391    0.018646291    433.59224      14.004161      14.141856      0.007110836    85870.706    
    654000   0.039649492   -38.499364      0.059471931   -38.439892     -0.012230984    0.024467157    0.00620224     433.67012      13.975445      14.109508      0.0061461376   85513.963    
    656000   0.039870036   -38.499033      0.059802734   -38.439231      0.018127563   -0.013583665    0.0082016052   433.52852      13.942146      14.076168      0.0042485012   85080.834    
    658000   0.039979562   -38.49868       0.059967018   -38.438713      0.0046430959   0.032434508    0.012672963    433.61798      13.913034      14.050357      0.016583522    84764.981    
    660000   0.040152045   -38.499667      0.060225731   -38.439442     -0.01413751    -0.028222296    0.0136438      433.48762      13.885216      14.022636     -0.0095720018   84403.212    
    662000   0.039844296   -38.499826      0.059764126   -38.440062      0.026227194   -0.0091725206  -0.01976299     433.22152      13.853224      13.989885     -0.00090277226  83960.502    
    664000   0.039648781   -38.499981      0.059470864   -38.44051       0.0019357857   0.0045179588  -0.0015927993   433.29175      13.819065      13.960805      0.001620315    83592.931    
    666000   0.039818748   -38.501125      0.059725806   -38.4414       -0.020286464   -0.013370003   -0.0073991922   433.46933      13.788419      13.932864     -0.013685219    83274.732    
    668000   0.039897769   -38.500791      0.059844332   -38.440947     -0.02749154     0.003275006    0.01892605     433.45915      13.760096      13.909487     -0.0017634946   82962.29     
[...]
   2910000   0.040219363   -36.574125      0.060326704   -36.513798      0.053149056    0.03228448     0.052268701    481.12954      9.3898131      9.1771269      0.045900746    41459.657    
   2912000   0.03999468    -36.574561      0.059989693   -36.514572      0.012474497    0.011571789   -0.033465621    480.30903      9.4163136      9.1682926     -0.0031397782   41465.808    
   2914000   0.040269159   -36.575861      0.060401396   -36.51546      -0.066027294   -0.018115174    0.006175256    479.70664      9.4419903      9.1590763     -0.025989071    41484.987    
   2916000   0.040007593   -36.576331      0.060009062   -36.516322      0.01703404     0.059580781    0.025441974    479.01561      9.4597038      9.1563632      0.034018932    41490.648    
   2918000   0.039953948   -36.576236      0.059928598   -36.516308      0.042268664   -0.0012509872  -0.04491105     478.33515      9.4785622      9.1558533     -0.0012977911   41511.993    
   2920000   0.040538789   -36.576307      0.060805824   -36.515502      0.0047735271  -0.032524079   -0.011553634    477.72956      9.4801984      9.1544712     -0.013101396    41460.334    
   2922000   0.040207721   -36.576958      0.060309242   -36.516649      0.03488351     0.011924594    0.0034945909   477.52521      9.4757964      9.1513231      0.016767565    41409.111    
   2924000   0.040054666   -36.577008      0.060079668   -36.516929      0.026204342   -0.010727445   -0.031317891    477.458        9.4882324      9.1511429     -0.0052803313   41456.805    
   2926000   0.039915093   -36.577698      0.059870317   -36.517828     -0.037603283   -0.049396915   -0.020801232    477.13242      9.4932253      9.1357347     -0.03593381     41380.544    
   2928000   0.03999713    -36.577361      0.059993368   -36.517368      0.056549671    0.02745146     0.01242593     476.73618      9.5069329      9.133215       0.032142354    41394.46     
   2930000   0.039963965   -36.578053      0.059943622   -36.518109     -0.090880744    0.0065380745  -0.035483326    476.9948       9.5139916      9.128829      -0.039941998    41427.763    
   2932000   0.040129999   -36.577914      0.060192663   -36.517721     -0.089576047   -0.052739322   -0.045262943    476.81171      9.5235039      9.129004      -0.062526104    41454.06     
   2934000   0.039976075   -36.57833       0.059961787   -36.518368     -0.065102934    0.0012681993  -0.022389742    476.80572      9.5301415      9.123344      -0.028741492    41456.712    
   2936000   0.039789347   -36.579592      0.059681705   -36.51991       0.031093266   -0.034449247   -0.016673365    476.36382      9.535958       9.1266395     -0.0066764487   41458.539    
   2938000   0.039901931   -36.57938       0.059850574   -36.519529      0.010059628    0.030349844    0.044089518    476.31509      9.5450569      9.1196161      0.02816633     41461.921    
   2940000   0.040204532   -36.579162      0.060304459   -36.518858     -0.019651529   -0.0019089606   0.025626167    476.15948      9.5575181      9.1182213      0.001355226    41496.139    
   2942000   0.040283934   -36.57992       0.060423557   -36.519497      0.0077762673   0.00097490956 -0.0084024275   475.69489      9.5772019      9.1225202      0.00011624978  41560.615    
   2944000   0.040440889   -36.579987      0.060658981   -36.519328     -0.031290431   -0.031352824    0.012905243    475.59272      9.5832337      9.1179007     -0.016579337    41556.804    
   2946000   0.03989941    -36.579893      0.059846794   -36.520046     -0.043394128    0.032061417   -0.0087942156   475.54965      9.5873517      9.118338      -0.0067089757   41572.889    
   2948000   0.039960115   -36.580215      0.059937848   -36.520278     -0.0039863651   0.0016141102  -0.025678068    475.26625      9.5843461      9.1073896     -0.0093501077   41485.218    
   2950000   0.040065088   -36.579469      0.060095301   -36.519373     -0.032953038   -0.053682003    0.0053443383   475.10246      9.5926307      9.117322      -0.027096901    41552.035    
   2952000   0.039988495   -36.580066      0.059980415   -36.520086     -0.0064907737  -0.046987039   -0.064253431    474.9466       9.5929163      9.1137769     -0.039243748    41523.488    
   2954000   0.040233186   -36.579665      0.060347438   -36.519318      0.10411532     0.0076839226   0.051380224    474.7771       9.5870544      9.1179259      0.054393155    41502.189    
   2956000   0.040272268   -36.58004       0.060406059   -36.519634     -0.072893403   -0.0079604012   0.0076983599   474.33485      9.6032623      9.1149434     -0.024385148    41520.043    
   2958000   0.040537913   -36.5801        0.060804511   -36.519296     -0.042467843    0.032267277    0.020290879    474.32089      9.6118316      9.1098349      0.0033634379   41532.58     
   2960000   0.040547      -36.580935      0.060818141   -36.520116     -0.0184629      0.078058165    0.01632432     473.79096      9.6114621      9.1145432      0.025306528    41506.024    
   2962000   0.040294961   -36.580488      0.060440097   -36.520048     -0.020689982   -0.067212518   -0.015078166    473.79466      9.6138523      9.1171409     -0.034326888    41528.503    
   2964000   0.040058155   -36.580976      0.060084902   -36.520891     -0.063360121   -0.043421408   -0.026211049    473.70081      9.6131505      9.1169139     -0.044330859    41516.212    
   2966000   0.039637706   -36.580814      0.059454254   -36.521359      0.016550728    0.020060186   -0.07776819     473.50648      9.6129003      9.115447      -0.013719092    41491.423    
   2968000   0.040184202   -36.580404      0.060273965   -36.52013       0.0026186045   0.0029183564  -0.012253482    473.37436      9.6212859      9.1206179     -0.0022388404   41539.581    
   2970000   0.039929435   -36.580894      0.05989183    -36.521002     -0.0029603771  -0.01543596    -0.011363834    473.45738      9.6227665      9.1111652     -0.0099200571   41510.193    
   2972000   0.039788344   -36.580872      0.059680201   -36.521191      0.065550553   -0.031052271   -0.013329437    473.22543      9.6160629      9.1152836      0.0070562815   41479.694    
   2974000   0.039767412   -36.58117       0.059648804   -36.521521      0.034423996    0.01857059     0.029315196    472.92291      9.6226893      9.1129344      0.027436594    41471.053    
   2976000   0.040716487   -36.580766      0.061072362   -36.519694      0.042722216   -0.035320453   -0.023547877    473.1656       9.6283117      9.1084648     -0.0053820377   41496.215    
   2978000   0.039918603   -36.581272      0.059875581   -36.521397      0.099193097   -0.01216115    -0.024958037    473.05275      9.6237965      9.1141014      0.020691303    41492.525    
   2980000   0.039571198   -36.58174       0.059354494   -36.522386     -0.0023914615   0.029167137    0.012908547    472.55435      9.6283599      9.11493        0.013228074    41472.233    
   2982000   0.040006787   -36.580852      0.060007853   -36.520845      0.088736222    0.012900152    0.026598629    472.26785      9.6484242      9.1076148      0.042745001    41500.127    
   2984000   0.039905737   -36.58166       0.059856284   -36.521804     -0.027094856   -0.031180727    0.0034471363   472.41807      9.6491828      9.109111      -0.018276149    41523.412    
   2986000   0.03991518    -36.581271      0.059870447   -36.521401     -0.042969471   -0.017282138   -0.015423452    472.30324      9.6522378      9.0952158     -0.025225021    41463.117    
   2988000   0.039968093   -36.581115      0.059949814   -36.521165      0.019089341    0.0072702838   0.07632972     472.28919      9.6544462      9.0990871      0.034229782    41489.021    
   2990000   0.039905473   -36.5814        0.059855888   -36.521544     -0.020299167    0.01751627     0.010073684    472.38005      9.6443814      9.1066393      0.0024302622   41488.149    
   2992000   0.040073342   -36.581402      0.060107682   -36.521295     -0.0049803859  -0.0099575143   0.010957777    472.59574      9.6478849      9.1010156     -0.0013267076   41496.529    
   2994000   0.039967525   -36.580768      0.059948962   -36.520819      0.058532313    0.013559925   -0.014762426    472.40742      9.6427459      9.1071833      0.019109937    41485.995    
   2996000   0.039923054   -36.580731      0.059882257   -36.520848     -8.0881299e-05  0.022812428   -0.051003158    472.46913      9.6523621      9.0938372     -0.0094238705   41471.927    
   2998000   0.040357777   -36.581755      0.060534317   -36.521221     -0.0095437302  -0.048665231   -0.01949018     472.22378      9.6462615      9.1015438     -0.025899714    41459.298    
   3000000   0.040110176   -36.581788      0.06016293    -36.521626      0.0015188578   0.024573891   -0.0087015109   471.9119       9.6418005      9.097544       0.0057970794   41394.556    
   3002000   0.039914792   -36.581662      0.059869865   -36.521792      0.085548358   -0.011794681    0.046501016    472.10374      9.6458125      9.1043401      0.040084898    41459.564    
   3004000   0.039938296   -36.581907      0.05990512    -36.522002      0.017815755   -0.053077231   -0.0096567913   471.96343      9.6583416      9.0986904     -0.014972756    41475.325    
   3006000   0.040181407   -36.581358      0.060269773   -36.521088      0.011377285    0.036614283   -0.0053301453   471.99042      9.6441456      9.1027765      0.014220474    41435.332    
   3008000   0.040231616   -36.581934      0.060345083   -36.521589      0.072787716    0.0079817729   0.011991938    472.07716      9.6460895      9.1059492      0.030920475    41465.747    
   3010000   0.039854191   -36.581681      0.059778968   -36.521902     -0.051433591    0.040785922   -0.0036001611   472.22093      9.6453985      9.0988157     -0.0047492767   41442.913    
   3012000   0.039934672   -36.582052      0.059899685   -36.522153      0.0033796123   0.025298962    0.033322701    472.07872      9.6416642      9.1030398      0.020667092    41433.618    
   3014000   0.0398366     -36.581438      0.059752582   -36.521686      0.017585701    0.016606887    0.012644815    471.98629      9.6627928      9.0981521      0.015612468    41493.994    
   3016000   0.039980227   -36.581778      0.059968015   -36.52181       0.015914353   -0.015977954    0.02077669     471.66597      9.674135       9.0920188      0.0069043629   41486.52     
   3018000   0.040029207   -36.581722      0.060041481   -36.521681     -0.0041299184  -0.03282698    -0.03727355     471.61811      9.6679546      9.109052      -0.024743483    41533.474    
   3020000   0.0399178     -36.581107      0.059874377   -36.521232      0.025681425    0.064564914    0.025095418    471.59851      9.6667757      9.0968263      0.038447252    41470.948    
   3022000   0.040161403   -36.581615      0.060239768   -36.521376     -0.029854824   -0.0032185924  -0.0097335371   471.31178      9.6903377      9.0948942     -0.014268984    41537.93     
   3024000   0.039683541   -36.581167      0.059523003   -36.521644     -0.073647891   -0.041537122   -0.0035323338   471.25458      9.6846335      9.0939302     -0.039572449    41504.042    
   3026000   0.040237636   -36.581724      0.060354113   -36.52137       0.15269063     0.036556923    0.042596177    471.02948      9.6891066      9.0955419      0.077281242    41510.734    
   3028000   0.039879601   -36.581625      0.059817081   -36.521808      0.013020293    0.049090624    0.031270205    471.32745      9.6904448      9.0918251      0.031127041    41525.753    
   3030000   0.040034344   -36.582183      0.060049187   -36.522133      0.015705965    0.016212884    0.028506032    470.55809      9.722725       9.0921107      0.020141627    41597.379    
   3032000   0.039719586   -36.581804      0.059577068   -36.522227     -0.11283741    -0.028310306    0.00097803723  470.5799       9.734175       9.0884588     -0.046723226    41631.568    
   3034000   0.040162143   -36.581572      0.060240878   -36.521331     -0.024091067    0.012866955    0.027498171    470.62871      9.7209388      9.090662       0.0054246864   41589.35     
   3036000   0.040147798   -36.581929      0.060219361   -36.521709      0.021503978   -0.025211136   -0.073345469    470.43683      9.7202219      9.0860128     -0.025684209    41548.068    
   3038000   0.039806063   -36.582079      0.059706779   -36.522373      0.02101159    -0.010675945    0.035041909    470.39012      9.7367562      9.0893287      0.015125851    41629.797    
   3040000   0.040157007   -36.581802      0.060233175   -36.521568     -0.025918736    0.035365457   -0.0065287357   470.06549      9.7457689      9.0902562      0.00097266161  41643.824    
   3042000   0.039658238   -36.581819      0.05948505    -36.522334     -0.13244516     0.0089142715  -0.067996598    470.13802      9.7345502      9.0858658     -0.063842496    41582.211    
   3044000   0.039989334   -36.582216      0.059981674   -36.522234      0.067890095   -0.014812119   -0.0070389256   470.22482      9.7221095      9.0943284      0.01534635     41575.424    
   3046000   0.040209248   -36.581876      0.060311533   -36.521564      0.014854295    0.0018009332  -0.035635796    470.17189      9.7310714      9.0854715     -0.006326856    41568.541    
   3048000   0.040384038   -36.582049      0.060573708   -36.521475      0.00077881219  0.012400361    0.0044388152   470.0828       9.7466149      9.0904612      0.0058726627   41649.912    
   3050000   0.040243432   -36.581845      0.060362806   -36.521482      0.0015509544   0.034866971   -0.0078405375   470.28473      9.7216757      9.0981623      0.0095257959   41596.395    
   3052000   0.039868333   -36.582041      0.059800179   -36.522241     -0.010262558   -0.015230234    0.082157014    470.0986       9.7466317      9.092357       0.018888074    41660.07     
   3054000   0.03990502    -36.58218       0.059855209   -36.522325     -0.018596263   -0.010693864   -0.078463159    469.764        9.7491988      9.0981156     -0.035917762    41667.755    
   3056000   0.039785029   -36.581791      0.059675229   -36.522115      0.048334685    0.068511489    0.097181126    469.74985      9.7509396      9.0912183      0.071342433    41642.348    
   3058000   0.040169755   -36.581887      0.060252296   -36.521635     -0.083328959   -0.0067163069   0.035924166    469.99025      9.753865       9.088438      -0.018040367    41663.413    
   3060000   0.040134188   -36.582738      0.060198947   -36.522539     -0.084212498   -0.035541098   -0.076677573    469.67944      9.7383691      9.1041514     -0.065477057    41641.585    
   3062000   0.040179188   -36.581736      0.060266445   -36.521469      0.021096367    0.067522028    0.0044763271   469.85396      9.7406233      9.10047        0.031031574    41649.852    
   3064000   0.039899468   -36.582645      0.059846881   -36.522799      0.067630777    0.048950854    0.011942099    469.76929      9.7361136      9.105834       0.042841243    41647.6      
   3066000   0.039795324   -36.582696      0.05969067    -36.523006      0.057509622    0.010982775   -0.00092319405  469.89346      9.739087       9.106225       0.022523068    41673.121    
   3068000   0.039752284   -36.582759      0.059626113   -36.523133     -0.071693159   -0.02666163    -0.047504061    469.72706      9.7539619      9.1015017     -0.048619617    41700.348    
   3070000   0.04009372    -36.583183      0.060138248   -36.523045     -0.060317937   -0.017679311   -0.045050369    469.27975      9.7704002      9.1107966     -0.041015872    41773.467    
   3072000   0.039935539   -36.58258       0.059900985   -36.52268       0.02204254     0.0070642446  -0.0096907658   469.57517      9.7652347      9.1085509      0.0064720064   41767.367    
   3074000   0.039774635   -36.582476      0.059659638   -36.522816      0.02839958    -0.02831459    -0.055358283    469.45845      9.7565275      9.1117276     -0.018424431    41734.302    
   3076000   0.039843722   -36.582187      0.059763265   -36.522424     -0.076972919    0.032515469   -0.035393662    469.39461      9.7824858      9.1050432     -0.026617037    41808.957    
   3078000   0.039943164   -36.582759      0.059912422   -36.522846     -0.062742402   -0.015950747   -0.040075973    469.53679      9.776748       9.1049516     -0.039589708    41796.67     
   3080000   0.040431722   -36.582939      0.06064523    -36.522294     -0.085192704    0.013709791   -0.015661075    469.60679      9.7509777      9.112638      -0.029047996    41727.912    
   3082000   0.040191957   -36.582788      0.060285598   -36.522502      0.029500251    0.01288832     0.040184526    469.43015      9.7807767      9.0966976      0.027524366    41766.5      
   3084000   0.039864155   -36.58295       0.059793913   -36.523156      0.14529449    -0.002899428    0.024665752    469.84303      9.7724535      9.1058099      0.055686939    41809.5      
   3086000   0.040040634   -36.5827        0.060058621   -36.522642      0.061730379    0.029807274   -0.040128676    469.81376      9.7681551      9.1040616      0.017136326    41780.484    
   3088000   0.040200119   -36.583204      0.06029784    -36.522906     -0.012556468    0.014320227    0.027409635    469.60544      9.7724093      9.1119171      0.009724465    41816.197    
   3090000   0.039550391   -36.582202      0.059323285   -36.522879      0.0028658227  -0.008711215   -0.00896897     469.52749      9.7933529      9.1002139     -0.0049381208   41845.044    
   3092000   0.040112475   -36.583219      0.060166379   -36.523053      0.081059293    0.0036512405   0.037714556    469.35713      9.7877882      9.1055256      0.040808363    41830.495    
   3094000   0.039644953   -36.583139      0.059465123   -36.523674      0.0064766835  -0.010966436   -0.0021150462   469.58257      9.7839592      9.1049138     -0.0022015994   41831.404    
   3096000   0.04005018    -36.583196      0.06007294    -36.523123      0.053709756   -0.032869175   -0.01320905     469.29364      9.7787848      9.1029221      0.0025438434   41774.415    
   3098000   0.040439246   -36.582711      0.060656516   -36.522054      0.01860552    -0.01650252     0.034373068    469.33376      9.7802387      9.109022       0.012158689    41812.198    
   3100000   0.040018243   -36.583135      0.060025036   -36.52311       0.0007277981  -0.015651465   -0.046201331    469.42969      9.7749797      9.1059113     -0.020374999    41783.983    
Loop time of 1904.61 on 1 procs for 200000 steps with 25781 atoms

Performance: 9072.743 tau/day, 105.009 timesteps/s, 2.707 Matom-step/s
100.0% CPU use with 1 MPI tasks x 1 OpenMP threads

MPI task timing breakdown:
Section |  min time  |  avg time  |  max time  |%varavg| %total
---------------------------------------------------------------
Pair    | 1665.7     | 1665.7     | 1665.7     |   0.0 | 87.46
Neigh   | 25.39      | 25.39      | 25.39      |   0.0 |  1.33
Comm    | 37.053     | 37.053     | 37.053     |   0.0 |  1.95
Output  | 0.18037    | 0.18037    | 0.18037    |   0.0 |  0.01
Modify  | 155.38     | 155.38     | 155.38     |   0.0 |  8.16
Other   |            | 20.93      |            |       |  1.10

Nlocal:          25781 ave       25781 max       25781 min
Histogram: 1 0 0 0 0 0 0 0 0 0
Nghost:          48083 ave       48083 max       48083 min
Histogram: 1 0 0 0 0 0 0 0 0 0
Neighs:         461594 ave      461594 max      461594 min
Histogram: 1 0 0 0 0 0 0 0 0 0

Total # of neighbors = 461594
Ave neighs/atom = 17.904426
Neighbor list builds = 873
Dangerous builds = 0
unfix          1

write_data    resultingsilk.data
System init for write_data ...
Generated 0 of 36 mixed pair_coeff terms from geometric mixing rule
WARNING: Not all mixed pair coeffs generated from mixing. Use write_data with 'pair ij' option to store all pair coeffs. (src/write_data.cpp:364)
Total wall time: 8:45:30
