LAMMPS (19 Nov 2024 - Development - patch_2Jul2021-14588-g93bfae9507)
OMP_NUM_THREADS environment is not set. Defaulting to 1 thread. (src/comm.cpp:99)
  using 1 OpenMP thread(s) per MPI task
######### 3d Lennard-Jones for polymeric system #############
######## simulting polymer brush by "grafting from" approach##
##### study the effect of iniatior density embedded in the #### #### substrate on chain length disbribution and polydispersity###

units		lj
atom_style	atomic
boundary        p p p
########## configure the simulation setup ############
read_data	s1.data nocoeff
Reading data file ...
  orthogonal box = (0 0 0) to (201.58737 50.396842 50.396842)
  1 by 1 by 1 MPI processor grid
WARNING: Pair style lj/cut/bump in data file differs from currently defined pair style zero (src/read_data.cpp:786)
  reading atoms ...
  95168 atoms
  reading velocities ...
  95168 velocities
  read_data CPU = 1.248 seconds
variable        rho equal 2/(2*2^(1./6.))^3

variable        dimx equal 16*4
variable        dimy equal 8*2
variable        dimz equal 8*2

region	end block  0 2 INF INF INF INF units box

#mass (soft segment = 1.0 / hard segment = 1.0)
variable        mass5 equal 1.0
mass            * 1.0
mass            1 0.2
mass            2 0.2
mass            3 0.1
mass            4 0.1
mass            5 0.35 #solvent mass

mass            6 0.1
mass            7 1.0
mass            8 1.0

###### randomly reset some of the bottom substrate atoms to radical atoms ####

group           patch4 type 4
8192 atoms in group patch4
group           patch1 type 1
2048 atoms in group patch1
group           patch2 type 2
2048 atoms in group patch2
group           patch3 type 3
8192 atoms in group patch3
group           patch6 type 6
16384 atoms in group patch6
group           patch5 type 5
46080 atoms in group patch5
group           patch7 type 7
6112 atoms in group patch7
group           patch8 type 8
6112 atoms in group patch8
#delete_atoms   group patch6
group           patch9 type 9
0 atoms in group patch9
delete_atoms    group patch9
Deleted 0 atoms, new total = 95168
#delete_atoms    group patch3
#delete_atoms    group patch4
#delete_atoms    group patch6


#temperature is 0.028 before
variable	t equal 0.04
variable	tf equal 0.04
velocity	all create $t 2787
velocity	all create 0.04 2787

#c is 2.35 before for chains, 1.9 for very compact
variable        c equal 1.8
variable        s equal $c/2^(1./6.)
variable        s equal 1.8/2^(1./6.)

#variable        m equal ${shift}/2^(1./6.)
#variable        n equal $m*1.6

variable        u equal 1.0
variable        v equal $u/2^(1./6.)
variable        v equal 1/2^(1./6.)

variable        p equal 1.0
variable        q equal $p/2^(1./6.)
variable        q equal 1/2^(1./6.)

variable        h equal 1.0
variable        k equal $h/2^(1./6.)
variable        k equal 1/2^(1./6.)

variable        h2 equal 1.0
variable        k2 equal ${h2}/2^(1./6.)
variable        k2 equal 1/2^(1./6.)

variable        h3 equal sqrt(2.0) # 1.414
variable        k3 equal ${h3}/2^(1./6.)
variable        k3 equal 1.4142135623731/2^(1./6.)

variable        b equal 0.2
variable        b1 equal 0.14

variable        c3 equal 2.0
variable        s3 equal ${c3}/2^(1./6.)
variable        s3 equal 2/2^(1./6.)

variable        c5 equal 1.6
variable        s5 equal ${c5}/2^(1./6.)
variable        s5 equal 1.6/2^(1./6.)

variable        h4 equal 0.5
variable        k4 equal ${h4}/2^(1./6.)
variable        k4 equal 0.5/2^(1./6.)

variable        h5 equal 0.50
variable        k5 equal ${h5}/2^(1./6.)
variable        k5 equal 0.5/2^(1./6.)

variable        c4 equal 0.707
variable        s4 equal ${c4}/2^(1./6.)
variable        s4 equal 0.707/2^(1./6.)

variable        c6 equal 2.5
variable        s6 equal ${c6}/2^(1./6.)
variable        s6 equal 2.5/2^(1./6.)

variable        c7 equal 2.8
variable        s7 equal ${c7}/2^(1./6.)
variable        s7 equal 2.8/2^(1./6.)

#pair_style     lj/cut/bump/smooth/linear 2.5
pair_style      lj/cut/bump 2.8 #cutoff 2.8
pair_coeff      * * 0.02 $v 1.0 1 0 $u
pair_coeff      * * 0.02 0.890898718140339 1.0 1 0 $u
pair_coeff      * * 0.02 0.890898718140339 1.0 1 0 1

#backbone
#in hard segment
pair_coeff      1 1 20.0 $s  1.0 1 0 1.8 #1.8 only repulsion
pair_coeff      1 1 20.0 1.60361769265261  1.0 1 0 1.8 
pair_coeff      2 2 20.0 $s  1.0 1 0 1.8 #1.8 only repulsion
pair_coeff      2 2 20.0 1.60361769265261  1.0 1 0 1.8 
pair_coeff      1 2 20.0 ${k2} 1.2 1 1.0 1.8 #1 strong bond
pair_coeff      1 2 20.0 0.890898718140339 1.2 1 1.0 1.8 

#connect soft segments in outside and inside hard segments
pair_coeff      2 7 20.0 ${k2} 1.2 1 1.0 1.8 #1 strong bond
pair_coeff      2 7 20.0 0.890898718140339 1.2 1 1.0 1.8 
pair_coeff      1 8 20.0 ${k2} 1.2 1 1.0 1.8 #1 strong bond
pair_coeff      1 8 20.0 0.890898718140339 1.2 1 1.0 1.8 
pair_coeff      1 7 20.0 $s  1.0 1 0 1.8 #1.8 only repulsion
pair_coeff      1 7 20.0 1.60361769265261  1.0 1 0 1.8 
pair_coeff      2 8 20.0 $s  1.0 1 0 1.8 #1.8 only repulsion
pair_coeff      2 8 20.0 1.60361769265261  1.0 1 0 1.8 

#soft segment (distance between soft/soft = 2.2)
pair_coeff      7 7 20.0 $s  1.0 1 0 1.8 #1.8 only repulsion
pair_coeff      7 7 20.0 1.60361769265261  1.0 1 0 1.8 
pair_coeff      8 8 20.0 $s  1.0 1 0 1.8 #1.8 only repulsion
pair_coeff      8 8 20.0 1.60361769265261  1.0 1 0 1.8 
pair_coeff      7 8 20.0 ${k2} 1.2 1 1.0 1.8 #1 strong bond
pair_coeff      7 8 20.0 0.890898718140339 1.2 1 1.0 1.8 

#intramolecular interactions in hard segments
pair_coeff      1 3 20.0 ${k4} 1.2 1 2.0 1.118 #0.5 strong bond
pair_coeff      1 3 20.0 0.44544935907017 1.2 1 2.0 1.118 
pair_coeff      2 3 20.0 ${k4} 1.2 1 2.0 1.118 #0.5 strong bond
pair_coeff      2 3 20.0 0.44544935907017 1.2 1 2.0 1.118 
pair_coeff      1 4 20.0 ${k4} 1.2 1 2.0 1.118 #0.5 strong bond
pair_coeff      1 4 20.0 0.44544935907017 1.2 1 2.0 1.118 
pair_coeff      2 4 20.0 ${k4} 1.2 1 2.0 1.118 #0.5 strong bond
pair_coeff      2 4 20.0 0.44544935907017 1.2 1 2.0 1.118 
pair_coeff      1*2 6 20.0 ${s4} 1.2 1 2.0 1.225 #0.707 strong bond
pair_coeff      1*2 6 20.0 0.62986539372522 1.2 1 2.0 1.225 

pair_coeff      3 4 20.0 ${s4} 1.2 1 2.0 1.225 #0.707 weak bond ####
pair_coeff      3 4 20.0 0.62986539372522 1.2 1 2.0 1.225 
pair_coeff      3*4 6 20.0 ${k4} 1.2 1 2.0 1.118 #0.5 strong bond
pair_coeff      3*4 6 20.0 0.44544935907017 1.2 1 2.0 1.118 
#pair_coeff      3*4 6 0.01 ${k5} 1.2 1 0.0 0.50 #0.50 only repulsion ####

#pair_coeff      3 3 10.0 ${k2} 1.2 1 1.0 1.2 #1 strong bond_initial
#pair_coeff      4 4 10.0 ${k2} 1.2 1 1.0 1.2 #1 strong bond_initial

pair_coeff      6 6 5.0 ${k2} 1.16 1.0 2.0 1.12 #1 strong bond ####
pair_coeff      6 6 5.0 0.890898718140339 1.16 1.0 2.0 1.12 

#intermolecular interactions between soft and hard segments

pair_coeff      3*4 7 0.01 ${k4} 1.2 1 0.0 0.5 #0.5 only repulsion
pair_coeff      3*4 7 0.01 0.44544935907017 1.2 1 0.0 0.5 
pair_coeff      3*4 8 0.01 ${k4} 1.2 1 0.0 0.5 #0.5 only repulsion
pair_coeff      3*4 8 0.01 0.44544935907017 1.2 1 0.0 0.5 
pair_coeff      6 7 0.01 ${k4} 1.2 1 0.0 0.5 #0.5 only repulsion
pair_coeff      6 7 0.01 0.44544935907017 1.2 1 0.0 0.5 
pair_coeff      6 8 0.01 ${k4} 1.2 1 0.0 0.5 #0.5 only repulsion
pair_coeff      6 8 0.01 0.44544935907017 1.2 1 0.0 0.5 

#turn on hydrophobic interaction of solvent particles
variable        c8 equal 2.0
variable        s8 equal ${c8}/2^(1./6.)
variable        s8 equal 2/2^(1./6.)

variable        c9 equal 2.2
variable        s9 equal ${c9}/2^(1./6.)
variable        s9 equal 2.2/2^(1./6.)

variable        c10 equal 0.3
variable        s10 equal ${c10}/2^(1./6.)
variable        s10 equal 0.3/2^(1./6.)

pair_coeff      1*2 5 0.05 ${s9} 1.2 1 0.0 2.2 # 2.2 only repulsion
pair_coeff      1*2 5 0.05 1.95997717990875 1.2 1 0.0 2.2 

pair_coeff      3*4 5 0.01 ${s10} 1.2 1 0.0 0.3 #only repulsion
pair_coeff      3*4 5 0.01 0.267269615442102 1.2 1 0.0 0.3 
pair_coeff      5 6 0.01 ${s10} 1.2 1 0.0 0.3 #only repulsion
pair_coeff      5 6 0.01 0.267269615442102 1.2 1 0.0 0.3 

#turn on 33bond and 44bond
pair_coeff      3 3 2.5 ${k2} 1.1 0.415 2.0 2.8 #1 strong bond
pair_coeff      3 3 2.5 0.890898718140339 1.1 0.415 2.0 2.8 
pair_coeff      4 4 2.5 ${k2} 1.1 0.475 2.0 2.8 #1 strong bond
pair_coeff      4 4 2.5 0.890898718140339 1.1 0.475 2.0 2.8 

#solvent behavior
pair_coeff      5 5 0.05 ${s9} 1.2 1 0.0 2.2 # 2.2 only repulsion
pair_coeff      5 5 0.05 1.95997717990875 1.2 1 0.0 2.2 

pair_coeff      5 7 0.05 ${s8} 1.2 1 0.0 2.8 # 2.0 attraction
pair_coeff      5 7 0.05 1.78179743628068 1.2 1 0.0 2.8 
pair_coeff      5 8 0.05 ${s8} 1.2 1 0.0 2.8 # 2.0 attraction
pair_coeff      5 8 0.05 1.78179743628068 1.2 1 0.0 2.8 

pair_modify     tail no
pair_modify     shift yes
neighbor        0.5 bin
neigh_modify    every 1 delay 0 check yes
#neigh_modify    page 100000000000
#neigh_modify    one  10000000000

timestep        0.001
thermo          2000
thermo_style    custom step temp pe ke etotal pxx pyy pzz lx ly lz press vol



dump            1 all custom 100000 lata4olivia_assembly id type x y z fx fy fz vx vy vz
################relaxation (P drop)######################
#minimize        1e-5 1e-6 100000 100000
fix		1 all nvt temp ${tf} ${tf} 0.01
fix		1 all nvt temp 0.04 ${tf} 0.01
fix		1 all nvt temp 0.04 0.04 0.01
run		5000#test!00 #pre-assemble
Generated 0 of 36 mixed pair_coeff terms from geometric mixing rule
Neighbor list info ...
  update: every = 1 steps, delay = 0 steps, check = yes
  max neighbors/atom: 2000, page size: 100000
  master list distance cutoff = 3.3
  ghost atom cutoff = 3.3
  binsize = 1.65, bins = 123 31 31
  1 neighbor lists, perpetual/occasional/extra = 1 0 0
  (1) pair lj/cut/bump, perpetual
      attributes: half, newton on
      pair build: half/bin/atomonly/newton
      stencil: half/bin/3d
      bin: standard
Per MPI rank memory allocation (min/avg/max) = 26.26 | 26.26 | 26.26 Mbytes
   Step          Temp          PotEng         KinEng         TotEng          Pxx            Pyy            Pzz             Lx             Ly             Lz           Press          Volume    
         0   0.04          -20.648984      0.05999937    -20.588985     -0.54849706    -0.80169095    -0.71287154     201.58737      50.396842      50.396842     -0.68768652     512000       
      2000   0.04011802    -20.761525      0.060176397   -20.701348      0.028180525    0.013265307    0.016293628    201.58737      50.396842      50.396842      0.019246487    512000       
      4000   0.040012261   -20.766587      0.060017761   -20.706569      0.011952722    0.0078412869   0.0065081993   201.58737      50.396842      50.396842      0.0087674027   512000       
      5000   0.039911797   -20.768639      0.059867066   -20.708772      0.0088150856   0.010466478    0.0098764127   201.58737      50.396842      50.396842      0.0097193254   512000       
Loop time of 102.891 on 1 procs for 5000 steps with 95168 atoms

Performance: 4198.626 tau/day, 48.595 timesteps/s, 4.625 Matom-step/s
100.0% CPU use with 1 MPI tasks x 1 OpenMP threads

MPI task timing breakdown:
Section |  min time  |  avg time  |  max time  |%varavg| %total
---------------------------------------------------------------
Pair    | 87.151     | 87.151     | 87.151     |   0.0 | 84.70
Neigh   | 2.2251     | 2.2251     | 2.2251     |   0.0 |  2.16
Comm    | 1.3583     | 1.3583     | 1.3583     |   0.0 |  1.32
Output  | 0.0019793  | 0.0019793  | 0.0019793  |   0.0 |  0.00
Modify  | 9.3804     | 9.3804     | 9.3804     |   0.0 |  9.12
Other   |            | 2.774      |            |       |  2.70

Nlocal:          95168 ave       95168 max       95168 min
Histogram: 1 0 0 0 0 0 0 0 0 0
Nghost:          24344 ave       24344 max       24344 min
Histogram: 1 0 0 0 0 0 0 0 0 0
Neighs:         877524 ave      877524 max      877524 min
Histogram: 1 0 0 0 0 0 0 0 0 0

Total # of neighbors = 877524
Ave neighs/atom = 9.2207885
Neighbor list builds = 35
Dangerous builds = 0
unfix           1

################P change into 0.001######################
variable        pressurenow equal press
fix             1 all npt temp ${tf} ${tf} 0.01 iso ${pressurenow} 0.001 10
fix             1 all npt temp 0.04 ${tf} 0.01 iso ${pressurenow} 0.001 10
fix             1 all npt temp 0.04 0.04 0.01 iso ${pressurenow} 0.001 10
fix             1 all npt temp 0.04 0.04 0.01 iso 0.00971932544737267 0.001 10
run             10000#test!0
Generated 0 of 36 mixed pair_coeff terms from geometric mixing rule
Per MPI rank memory allocation (min/avg/max) = 44.25 | 44.25 | 44.25 Mbytes
   Step          Temp          PotEng         KinEng         TotEng          Pxx            Pyy            Pzz             Lx             Ly             Lz           Press          Volume    
      5000   0.039911797   -20.768639      0.059867066   -20.708772      0.0088150856   0.010466478    0.0098764127   201.58737      50.396842      50.396842      0.0097193254   512000       
      6000   0.040029345   -20.770392      0.060043386   -20.710349      0.019513137    0.0085790896   0.01358204     202.0276       50.5069        50.5069        0.013891422    515361.69    
      8000   0.039813592   -20.773819      0.05971976    -20.714099      0.0083402643   0.0075826893   0.0052527768   203.2464       50.8116        50.8116        0.0070585768   524745.35    
     10000   0.040007733   -20.775869      0.060010969   -20.715858      0.013747291    0.0074374786   0.0081549918   204.34295      51.085738      51.085738      0.0097799205   533284.55    
     12000   0.039971537   -20.778485      0.059956675   -20.718528      0.013401848    0.0095978894   0.012291986    205.44356      51.36089       51.36089       0.011763908    541948.01    
     14000   0.039957989   -20.780036      0.059936354   -20.7201        0.013176152    0.0052239053   0.010137156    206.60276      51.650689      51.650689      0.0095124042   551173.53    
     15000   0.040144099   -20.780728      0.060215515   -20.720513      0.0021655196  -0.00016531641  0.0036447475   207.20404      51.801011      51.801011      0.0018816502   555999.89    
Loop time of 232.211 on 1 procs for 10000 steps with 95168 atoms

Performance: 3720.759 tau/day, 43.064 timesteps/s, 4.098 Matom-step/s
100.0% CPU use with 1 MPI tasks x 1 OpenMP threads

MPI task timing breakdown:
Section |  min time  |  avg time  |  max time  |%varavg| %total
---------------------------------------------------------------
Pair    | 185.05     | 185.05     | 185.05     |   0.0 | 79.69
Neigh   | 5.6212     | 5.6212     | 5.6212     |   0.0 |  2.42
Comm    | 2.2604     | 2.2604     | 2.2604     |   0.0 |  0.97
Output  | 0.003686   | 0.003686   | 0.003686   |   0.0 |  0.00
Modify  | 35.016     | 35.016     | 35.016     |   0.0 | 15.08
Other   |            | 4.254      |            |       |  1.83

Nlocal:          95168 ave       95168 max       95168 min
Histogram: 1 0 0 0 0 0 0 0 0 0
Nghost:          23470 ave       23470 max       23470 min
Histogram: 1 0 0 0 0 0 0 0 0 0
Neighs:         874502 ave      874502 max      874502 min
Histogram: 1 0 0 0 0 0 0 0 0 0

Total # of neighbors = 874502
Ave neighs/atom = 9.1890341
Neighbor list builds = 87
Dangerous builds = 0
unfix           1

################the first compression at low P (P = 0.001) and dehydration##############
fix             1 all npt temp ${tf} ${tf} 0.01 iso 0.001 0.001 10
fix             1 all npt temp 0.04 ${tf} 0.01 iso 0.001 0.001 10
fix             1 all npt temp 0.04 0.04 0.01 iso 0.001 0.001 10

variable a loop 400
label loop
                group g5 type 5 5
46080 atoms in group g5

variable        n5 equal count(g5)
variable        rmn equal 109 #dehydration amount 3925, for the original sample replication of 72x4x4, for smaller sample of 8x2x2, should be 36 times smaller
variable        fraction equal ${rmn}/${n5}
variable        fraction equal 109/${n5}
variable        fraction equal 109/46080
if "${fraction} > 1.0" then "jump s_hydro2 breakloop"
                set group g5 type/fraction 9 ${fraction} 11
                set group g5 type/fraction 9 0.00236545138888889 11
Setting atom values ...
  105 settings made for type/fraction

                group g9 type 9 9
105 atoms in group g9
                delete_atoms group g9
Deleted 105 atoms, new total = 95063
                group g5 delete
                group g9 delete
run             500#test!0
Generated 0 of 36 mixed pair_coeff terms from geometric mixing rule
Per MPI rank memory allocation (min/avg/max) = 44.3 | 44.3 | 44.3 Mbytes
   Step          Temp          PotEng         KinEng         TotEng          Pxx            Pyy            Pzz             Lx             Ly             Lz           Press          Volume    
     15000   0.040173632   -20.803639      0.060259814   -20.74338       0.0021303033  -0.00021084347  0.0036086964   207.20404      51.801011      51.801011      0.0018427187   555999.89    
     15500   0.040111956   -20.804427      0.060167302   -20.74426      -0.0014380068   0.0015949645  -0.0044085152   207.43293      51.858232      51.858232     -0.0014171858   557844.44    
Loop time of 12.7368 on 1 procs for 500 steps with 95063 atoms

Performance: 3391.740 tau/day, 39.256 timesteps/s, 3.732 Matom-step/s
100.0% CPU use with 1 MPI tasks x 1 OpenMP threads

MPI task timing breakdown:
Section |  min time  |  avg time  |  max time  |%varavg| %total
---------------------------------------------------------------
Pair    | 10.063     | 10.063     | 10.063     |   0.0 | 79.01
Neigh   | 0.19309    | 0.19309    | 0.19309    |   0.0 |  1.52
Comm    | 0.12774    | 0.12774    | 0.12774    |   0.0 |  1.00
Output  | 0.00065331 | 0.00065331 | 0.00065331 |   0.0 |  0.01
Modify  | 2.1081     | 2.1081     | 2.1081     |   0.0 | 16.55
Other   |            | 0.2439     |            |       |  1.91

Nlocal:          95063 ave       95063 max       95063 min
Histogram: 1 0 0 0 0 0 0 0 0 0
Nghost:          23442 ave       23442 max       23442 min
Histogram: 1 0 0 0 0 0 0 0 0 0
Neighs:         873649 ave      873649 max      873649 min
Histogram: 1 0 0 0 0 0 0 0 0 0

Total # of neighbors = 873649
Ave neighs/atom = 9.1902107
Neighbor list builds = 3
Dangerous builds = 0
next a
jump s_hydro2 loop
                group g5 type 5 5
45975 atoms in group g5

variable        n5 equal count(g5)
variable        rmn equal 109 #dehydration amount 3925, for the original sample replication of 72x4x4, for smaller sample of 8x2x2, should be 36 times smaller
variable        fraction equal ${rmn}/${n5}
variable        fraction equal 109/${n5}
variable        fraction equal 109/45975
if "${fraction} > 1.0" then "jump s_hydro2 breakloop"
                set group g5 type/fraction 9 ${fraction} 11
                set group g5 type/fraction 9 0.00237085372485046 11
Setting atom values ...
  106 settings made for type/fraction

                group g9 type 9 9
106 atoms in group g9
                delete_atoms group g9
Deleted 106 atoms, new total = 94957
                group g5 delete
                group g9 delete
run             500#test!0
Generated 0 of 36 mixed pair_coeff terms from geometric mixing rule
Per MPI rank memory allocation (min/avg/max) = 44.3 | 44.3 | 44.3 Mbytes
   Step          Temp          PotEng         KinEng         TotEng          Pxx            Pyy            Pzz             Lx             Ly             Lz           Press          Volume    
     15500   0.040145714   -20.827622      0.060217937   -20.767405     -0.0014674463   0.0015664692  -0.0044382749   207.43293      51.858232      51.858232     -0.0014464173   557844.44    
     16000   0.040107032   -20.827834      0.060159914   -20.767674      0.012411231    0.0061772795   0.010553226    207.86323      51.965807      51.965807      0.0097139122   561323.24    
Loop time of 11.458 on 1 procs for 500 steps with 94957 atoms

Performance: 3770.277 tau/day, 43.637 timesteps/s, 4.144 Matom-step/s
100.0% CPU use with 1 MPI tasks x 1 OpenMP threads

MPI task timing breakdown:
Section |  min time  |  avg time  |  max time  |%varavg| %total
---------------------------------------------------------------
Pair    | 9.144      | 9.144      | 9.144      |   0.0 | 79.80
Neigh   | 0.31995    | 0.31995    | 0.31995    |   0.0 |  2.79
Comm    | 0.10546    | 0.10546    | 0.10546    |   0.0 |  0.92
Output  | 0.00064911 | 0.00064911 | 0.00064911 |   0.0 |  0.01
Modify  | 1.6813     | 1.6813     | 1.6813     |   0.0 | 14.67
Other   |            | 0.2066     |            |       |  1.80

Nlocal:          94957 ave       94957 max       94957 min
Histogram: 1 0 0 0 0 0 0 0 0 0
Nghost:          23297 ave       23297 max       23297 min
Histogram: 1 0 0 0 0 0 0 0 0 0
Neighs:         871209 ave      871209 max      871209 min
Histogram: 1 0 0 0 0 0 0 0 0 0

Total # of neighbors = 871209
Ave neighs/atom = 9.1747738
Neighbor list builds = 5
Dangerous builds = 0
next a
jump s_hydro2 loop
                group g5 type 5 5
45869 atoms in group g5

variable        n5 equal count(g5)
variable        rmn equal 109 #dehydration amount 3925, for the original sample replication of 72x4x4, for smaller sample of 8x2x2, should be 36 times smaller
variable        fraction equal ${rmn}/${n5}
variable        fraction equal 109/${n5}
variable        fraction equal 109/45869
if "${fraction} > 1.0" then "jump s_hydro2 breakloop"
                set group g5 type/fraction 9 ${fraction} 11
                set group g5 type/fraction 9 0.00237633259935904 11
Setting atom values ...
  115 settings made for type/fraction

                group g9 type 9 9
115 atoms in group g9
                delete_atoms group g9
Deleted 115 atoms, new total = 94842
                group g5 delete
                group g9 delete
run             500#test!0
Generated 0 of 36 mixed pair_coeff terms from geometric mixing rule
Per MPI rank memory allocation (min/avg/max) = 44.3 | 44.3 | 44.3 Mbytes
   Step          Temp          PotEng         KinEng         TotEng          Pxx            Pyy            Pzz             Lx             Ly             Lz           Press          Volume    
     16000   0.040140613   -20.853057      0.060210285   -20.792847      0.012381377    0.006150246    0.010526569    207.86323      51.965807      51.965807      0.0096860641   561323.24    
     16500   0.039998611   -20.853472      0.059997283   -20.793474      0.0092167436  -0.00019834232  0.010635794    208.24378      52.060945      52.060945      0.0065513985   564411.85    
Loop time of 11.5903 on 1 procs for 500 steps with 94842 atoms

Performance: 3727.248 tau/day, 43.139 timesteps/s, 4.091 Matom-step/s
100.0% CPU use with 1 MPI tasks x 1 OpenMP threads

MPI task timing breakdown:
Section |  min time  |  avg time  |  max time  |%varavg| %total
---------------------------------------------------------------
Pair    | 9.2022     | 9.2022     | 9.2022     |   0.0 | 79.40
Neigh   | 0.31491    | 0.31491    | 0.31491    |   0.0 |  2.72
Comm    | 0.11037    | 0.11037    | 0.11037    |   0.0 |  0.95
Output  | 0.00058231 | 0.00058231 | 0.00058231 |   0.0 |  0.01
Modify  | 1.7506     | 1.7506     | 1.7506     |   0.0 | 15.10
Other   |            | 0.2117     |            |       |  1.83

Nlocal:          94842 ave       94842 max       94842 min
Histogram: 1 0 0 0 0 0 0 0 0 0
Nghost:          23187 ave       23187 max       23187 min
Histogram: 1 0 0 0 0 0 0 0 0 0
Neighs:         869295 ave      869295 max      869295 min
Histogram: 1 0 0 0 0 0 0 0 0 0

Total # of neighbors = 869295
Ave neighs/atom = 9.1657177
Neighbor list builds = 5
Dangerous builds = 0
next a
jump s_hydro2 loop
                group g5 type 5 5
45754 atoms in group g5

variable        n5 equal count(g5)
variable        rmn equal 109 #dehydration amount 3925, for the original sample replication of 72x4x4, for smaller sample of 8x2x2, should be 36 times smaller
variable        fraction equal ${rmn}/${n5}
variable        fraction equal 109/${n5}
variable        fraction equal 109/45754
if "${fraction} > 1.0" then "jump s_hydro2 breakloop"
                set group g5 type/fraction 9 ${fraction} 11
                set group g5 type/fraction 9 0.00238230537220789 11
Setting atom values ...
  122 settings made for type/fraction

                group g9 type 9 9
122 atoms in group g9
                delete_atoms group g9
Deleted 122 atoms, new total = 94720
                group g5 delete
                group g9 delete
run             500#test!0
Generated 0 of 36 mixed pair_coeff terms from geometric mixing rule
Per MPI rank memory allocation (min/avg/max) = 44.3 | 44.3 | 44.3 Mbytes
   Step          Temp          PotEng         KinEng         TotEng          Pxx            Pyy            Pzz             Lx             Ly             Lz           Press          Volume    
     16500   0.040036556   -20.880298      0.0600542     -20.820244      0.0091789869  -0.00022613184  0.010606938    208.24378      52.060945      52.060945      0.006519931    564411.85    
     17000   0.040001501   -20.880375      0.060001618   -20.820373      0.00019958273 -0.00084419707  0.0020229176   208.62193      52.155483      52.155483      0.00045943441  567492.23    
Loop time of 13.597 on 1 procs for 500 steps with 94720 atoms

Performance: 3177.174 tau/day, 36.773 timesteps/s, 3.483 Matom-step/s
100.0% CPU use with 1 MPI tasks x 1 OpenMP threads

MPI task timing breakdown:
Section |  min time  |  avg time  |  max time  |%varavg| %total
---------------------------------------------------------------
Pair    | 10.585     | 10.585     | 10.585     |   0.0 | 77.85
Neigh   | 0.28697    | 0.28697    | 0.28697    |   0.0 |  2.11
Comm    | 0.15222    | 0.15222    | 0.15222    |   0.0 |  1.12
Output  | 0.00059941 | 0.00059941 | 0.00059941 |   0.0 |  0.00
Modify  | 2.3131     | 2.3131     | 2.3131     |   0.0 | 17.01
Other   |            | 0.2591     |            |       |  1.91

Nlocal:          94720 ave       94720 max       94720 min
Histogram: 1 0 0 0 0 0 0 0 0 0
Nghost:          23053 ave       23053 max       23053 min
Histogram: 1 0 0 0 0 0 0 0 0 0
Neighs:         867332 ave      867332 max      867332 min
Histogram: 1 0 0 0 0 0 0 0 0 0

Total # of neighbors = 867332
Ave neighs/atom = 9.156799
Neighbor list builds = 4
Dangerous builds = 0
next a
jump s_hydro2 loop
                group g5 type 5 5
45632 atoms in group g5

variable        n5 equal count(g5)
variable        rmn equal 109 #dehydration amount 3925, for the original sample replication of 72x4x4, for smaller sample of 8x2x2, should be 36 times smaller
variable        fraction equal ${rmn}/${n5}
variable        fraction equal 109/${n5}
variable        fraction equal 109/45632
if "${fraction} > 1.0" then "jump s_hydro2 breakloop"
                set group g5 type/fraction 9 ${fraction} 11
                set group g5 type/fraction 9 0.00238867461430575 11
Setting atom values ...
  109 settings made for type/fraction

                group g9 type 9 9
109 atoms in group g9
                delete_atoms group g9
Deleted 109 atoms, new total = 94611
                group g5 delete
                group g9 delete
run             500#test!0
Generated 0 of 36 mixed pair_coeff terms from geometric mixing rule
Per MPI rank memory allocation (min/avg/max) = 44.3 | 44.3 | 44.3 Mbytes
   Step          Temp          PotEng         KinEng         TotEng          Pxx            Pyy            Pzz             Lx             Ly             Lz           Press          Volume    
     17000   0.040035908   -20.904398      0.060053227   -20.844345      0.00017669594 -0.00086867676  0.0020008711   208.62193      52.155483      52.155483      0.00043629677  567492.23    
     17500   0.04017615    -20.904931      0.060263588   -20.844667      0.001248169    0.012321774    0.00059948945  208.95827      52.239569      52.239569      0.004723144    570241.39    
Loop time of 11.6925 on 1 procs for 500 steps with 94611 atoms

Performance: 3694.661 tau/day, 42.762 timesteps/s, 4.046 Matom-step/s
100.0% CPU use with 1 MPI tasks x 1 OpenMP threads

MPI task timing breakdown:
Section |  min time  |  avg time  |  max time  |%varavg| %total
---------------------------------------------------------------
Pair    | 9.2664     | 9.2664     | 9.2664     |   0.0 | 79.25
Neigh   | 0.30573    | 0.30573    | 0.30573    |   0.0 |  2.61
Comm    | 0.11971    | 0.11971    | 0.11971    |   0.0 |  1.02
Output  | 0.00062441 | 0.00062441 | 0.00062441 |   0.0 |  0.01
Modify  | 1.7827     | 1.7827     | 1.7827     |   0.0 | 15.25
Other   |            | 0.2174     |            |       |  1.86

Nlocal:          94611 ave       94611 max       94611 min
Histogram: 1 0 0 0 0 0 0 0 0 0
Nghost:          22980 ave       22980 max       22980 min
Histogram: 1 0 0 0 0 0 0 0 0 0
Neighs:         865317 ave      865317 max      865317 min
Histogram: 1 0 0 0 0 0 0 0 0 0

Total # of neighbors = 865317
Ave neighs/atom = 9.1460507
Neighbor list builds = 4
Dangerous builds = 0
next a
jump s_hydro2 loop
                group g5 type 5 5
45523 atoms in group g5

variable        n5 equal count(g5)
variable        rmn equal 109 #dehydration amount 3925, for the original sample replication of 72x4x4, for smaller sample of 8x2x2, should be 36 times smaller
variable        fraction equal ${rmn}/${n5}
variable        fraction equal 109/${n5}
variable        fraction equal 109/45523
if "${fraction} > 1.0" then "jump s_hydro2 breakloop"
                set group g5 type/fraction 9 ${fraction} 11
                set group g5 type/fraction 9 0.00239439404257189 11
Setting atom values ...
  117 settings made for type/fraction

                group g9 type 9 9
117 atoms in group g9
                delete_atoms group g9
Deleted 117 atoms, new total = 94494
                group g5 delete
                group g9 delete
run             500#test!0
Generated 0 of 36 mixed pair_coeff terms from geometric mixing rule
Per MPI rank memory allocation (min/avg/max) = 44.3 | 44.3 | 44.3 Mbytes
   Step          Temp          PotEng         KinEng         TotEng          Pxx            Pyy            Pzz             Lx             Ly             Lz           Press          Volume    
     17500   0.040213708   -20.930795      0.060319924   -20.870475      0.0012167819   0.012296306    0.00057337246  208.95827      52.239569      52.239569      0.0046954867   570241.39    
     18000   0.040069943   -20.931148      0.060104278   -20.871044      0.0077014033   0.0032458265   0.0055934648   209.2608       52.315201      52.315201      0.0055135649   572721.76    
Loop time of 10.9726 on 1 procs for 500 steps with 94494 atoms

Performance: 3937.098 tau/day, 45.568 timesteps/s, 4.306 Matom-step/s
100.0% CPU use with 1 MPI tasks x 1 OpenMP threads

MPI task timing breakdown:
Section |  min time  |  avg time  |  max time  |%varavg| %total
---------------------------------------------------------------
Pair    | 8.8689     | 8.8689     | 8.8689     |   0.0 | 80.83
Neigh   | 0.19034    | 0.19034    | 0.19034    |   0.0 |  1.73
Comm    | 0.0943     | 0.0943     | 0.0943     |   0.0 |  0.86
Output  | 0.00061511 | 0.00061511 | 0.00061511 |   0.0 |  0.01
Modify  | 1.62       | 1.62       | 1.62       |   0.0 | 14.76
Other   |            | 0.1983     |            |       |  1.81

Nlocal:          94494 ave       94494 max       94494 min
Histogram: 1 0 0 0 0 0 0 0 0 0
Nghost:          22897 ave       22897 max       22897 min
Histogram: 1 0 0 0 0 0 0 0 0 0
Neighs:         863690 ave      863690 max      863690 min
Histogram: 1 0 0 0 0 0 0 0 0 0

Total # of neighbors = 863690
Ave neighs/atom = 9.140157
Neighbor list builds = 3
Dangerous builds = 0
next a
jump s_hydro2 loop
                group g5 type 5 5
45406 atoms in group g5

variable        n5 equal count(g5)
variable        rmn equal 109 #dehydration amount 3925, for the original sample replication of 72x4x4, for smaller sample of 8x2x2, should be 36 times smaller
variable        fraction equal ${rmn}/${n5}
variable        fraction equal 109/${n5}
variable        fraction equal 109/45406
if "${fraction} > 1.0" then "jump s_hydro2 breakloop"
                set group g5 type/fraction 9 ${fraction} 11
                set group g5 type/fraction 9 0.00240056380214069 11
Setting atom values ...
  117 settings made for type/fraction

                group g9 type 9 9
117 atoms in group g9
                delete_atoms group g9
Deleted 117 atoms, new total = 94377
                group g5 delete
                group g9 delete
run             500#test!0
Generated 0 of 36 mixed pair_coeff terms from geometric mixing rule
Per MPI rank memory allocation (min/avg/max) = 44.3 | 44.3 | 44.3 Mbytes
   Step          Temp          PotEng         KinEng         TotEng          Pxx            Pyy            Pzz             Lx             Ly             Lz           Press          Volume    
     18000   0.040107156   -20.957063      0.060160097   -20.896903      0.0076792026   0.003224629    0.0055709215   209.2608       52.315201      52.315201      0.0054915844   572721.76    
     18500   0.039930325   -20.957803      0.059894853   -20.897908      0.0058081283   0.00032958343  0.0022585392   209.54911      52.387278      52.387278      0.0027987503   575092.22    
Loop time of 10.9348 on 1 procs for 500 steps with 94377 atoms

Performance: 3950.692 tau/day, 45.726 timesteps/s, 4.315 Matom-step/s
100.0% CPU use with 1 MPI tasks x 1 OpenMP threads

MPI task timing breakdown:
Section |  min time  |  avg time  |  max time  |%varavg| %total
---------------------------------------------------------------
Pair    | 8.8129     | 8.8129     | 8.8129     |   0.0 | 80.60
Neigh   | 0.25359    | 0.25359    | 0.25359    |   0.0 |  2.32
Comm    | 0.091768   | 0.091768   | 0.091768   |   0.0 |  0.84
Output  | 0.00055631 | 0.00055631 | 0.00055631 |   0.0 |  0.01
Modify  | 1.5802     | 1.5802     | 1.5802     |   0.0 | 14.45
Other   |            | 0.1958     |            |       |  1.79

Nlocal:          94377 ave       94377 max       94377 min
Histogram: 1 0 0 0 0 0 0 0 0 0
Nghost:          22747 ave       22747 max       22747 min
Histogram: 1 0 0 0 0 0 0 0 0 0
Neighs:         862257 ave      862257 max      862257 min
Histogram: 1 0 0 0 0 0 0 0 0 0

Total # of neighbors = 862257
Ave neighs/atom = 9.1363044
Neighbor list builds = 4
Dangerous builds = 0
next a
jump s_hydro2 loop
                group g5 type 5 5
45289 atoms in group g5

variable        n5 equal count(g5)
variable        rmn equal 109 #dehydration amount 3925, for the original sample replication of 72x4x4, for smaller sample of 8x2x2, should be 36 times smaller
variable        fraction equal ${rmn}/${n5}
variable        fraction equal 109/${n5}
variable        fraction equal 109/45289
if "${fraction} > 1.0" then "jump s_hydro2 breakloop"
                set group g5 type/fraction 9 ${fraction} 11
                set group g5 type/fraction 9 0.0024067654397315 11
Setting atom values ...
  105 settings made for type/fraction

                group g9 type 9 9
105 atoms in group g9
                delete_atoms group g9
Deleted 105 atoms, new total = 94272
                group g5 delete
                group g9 delete
run             500#test!0
Generated 0 of 36 mixed pair_coeff terms from geometric mixing rule
Per MPI rank memory allocation (min/avg/max) = 44.3 | 44.3 | 44.3 Mbytes
   Step          Temp          PotEng         KinEng         TotEng          Pxx            Pyy            Pzz             Lx             Ly             Lz           Press          Volume    
     18500   0.039962167   -20.981091      0.059942614   -20.921148      0.00578627     0.00030116767  0.0022324344   209.54911      52.387278      52.387278      0.0027732907   575092.22    
     19000   0.040065348   -20.981488      0.060097385   -20.92139       0.00056340413  0.011551125   -0.00015714861  209.81817      52.454543      52.454543      0.0039857936   577310.32    
Loop time of 11.4421 on 1 procs for 500 steps with 94272 atoms

Performance: 3775.529 tau/day, 43.698 timesteps/s, 4.120 Matom-step/s
100.0% CPU use with 1 MPI tasks x 1 OpenMP threads

MPI task timing breakdown:
Section |  min time  |  avg time  |  max time  |%varavg| %total
---------------------------------------------------------------
Pair    | 9.1508     | 9.1508     | 9.1508     |   0.0 | 79.97
Neigh   | 0.26001    | 0.26001    | 0.26001    |   0.0 |  2.27
Comm    | 0.10714    | 0.10714    | 0.10714    |   0.0 |  0.94
Output  | 0.00088131 | 0.00088131 | 0.00088131 |   0.0 |  0.01
Modify  | 1.7174     | 1.7174     | 1.7174     |   0.0 | 15.01
Other   |            | 0.2058     |            |       |  1.80

Nlocal:          94272 ave       94272 max       94272 min
Histogram: 1 0 0 0 0 0 0 0 0 0
Nghost:          22682 ave       22682 max       22682 min
Histogram: 1 0 0 0 0 0 0 0 0 0
Neighs:         861190 ave      861190 max      861190 min
Histogram: 1 0 0 0 0 0 0 0 0 0

Total # of neighbors = 861190
Ave neighs/atom = 9.1351621
Neighbor list builds = 4
Dangerous builds = 0
next a
jump s_hydro2 loop
                group g5 type 5 5
45184 atoms in group g5

variable        n5 equal count(g5)
variable        rmn equal 109 #dehydration amount 3925, for the original sample replication of 72x4x4, for smaller sample of 8x2x2, should be 36 times smaller
variable        fraction equal ${rmn}/${n5}
variable        fraction equal 109/${n5}
variable        fraction equal 109/45184
if "${fraction} > 1.0" then "jump s_hydro2 breakloop"
                set group g5 type/fraction 9 ${fraction} 11
                set group g5 type/fraction 9 0.00241235835694051 11
Setting atom values ...
  109 settings made for type/fraction

                group g9 type 9 9
109 atoms in group g9
                delete_atoms group g9
Deleted 109 atoms, new total = 94163
                group g5 delete
                group g9 delete
run             500#test!0
Generated 0 of 36 mixed pair_coeff terms from geometric mixing rule
Per MPI rank memory allocation (min/avg/max) = 44.31 | 44.31 | 44.31 Mbytes
   Step          Temp          PotEng         KinEng         TotEng          Pxx            Pyy            Pzz             Lx             Ly             Lz           Press          Volume    
     19000   0.040100496   -21.005743      0.060150105   -20.945593      0.00054447516  0.011534132   -0.00017445813  209.81817      52.454543      52.454543      0.0039680496   577310.32    
     19500   0.039843124   -21.005797      0.059764051   -20.946033      0.0006276356   0.0074878459   0.0018273959   210.07984      52.519959      52.519959      0.0033142925   579472.89    
Loop time of 11.4552 on 1 procs for 500 steps with 94163 atoms

Performance: 3771.226 tau/day, 43.648 timesteps/s, 4.110 Matom-step/s
100.0% CPU use with 1 MPI tasks x 1 OpenMP threads

MPI task timing breakdown:
Section |  min time  |  avg time  |  max time  |%varavg| %total
---------------------------------------------------------------
Pair    | 9.1319     | 9.1319     | 9.1319     |   0.0 | 79.72
Neigh   | 0.25986    | 0.25986    | 0.25986    |   0.0 |  2.27
Comm    | 0.10404    | 0.10404    | 0.10404    |   0.0 |  0.91
Output  | 0.00059431 | 0.00059431 | 0.00059431 |   0.0 |  0.01
Modify  | 1.7464     | 1.7464     | 1.7464     |   0.0 | 15.25
Other   |            | 0.2123     |            |       |  1.85

Nlocal:          94163 ave       94163 max       94163 min
Histogram: 1 0 0 0 0 0 0 0 0 0
Nghost:          22566 ave       22566 max       22566 min
Histogram: 1 0 0 0 0 0 0 0 0 0
Neighs:         860413 ave      860413 max      860413 min
Histogram: 1 0 0 0 0 0 0 0 0 0

Total # of neighbors = 860413
Ave neighs/atom = 9.137485
Neighbor list builds = 4
Dangerous builds = 0
next a
jump s_hydro2 loop
                group g5 type 5 5
45075 atoms in group g5

variable        n5 equal count(g5)
variable        rmn equal 109 #dehydration amount 3925, for the original sample replication of 72x4x4, for smaller sample of 8x2x2, should be 36 times smaller
variable        fraction equal ${rmn}/${n5}
variable        fraction equal 109/${n5}
variable        fraction equal 109/45075
if "${fraction} > 1.0" then "jump s_hydro2 breakloop"
                set group g5 type/fraction 9 ${fraction} 11
                set group g5 type/fraction 9 0.00241819190238491 11
Setting atom values ...
  110 settings made for type/fraction

                group g9 type 9 9
110 atoms in group g9
                delete_atoms group g9
Deleted 110 atoms, new total = 94053
                group g5 delete
                group g9 delete
run             500#test!0
Generated 0 of 36 mixed pair_coeff terms from geometric mixing rule
Per MPI rank memory allocation (min/avg/max) = 44.31 | 44.31 | 44.31 Mbytes
   Step          Temp          PotEng         KinEng         TotEng          Pxx            Pyy            Pzz             Lx             Ly             Lz           Press          Volume    
     19500   0.0398779     -21.03033       0.059816213   -20.970514      0.00060559664  0.0074698519   0.0018046477   210.07984      52.519959      52.519959      0.0032933654   579472.89    
     20000   0.039989226   -21.030988      0.059983201   -20.971004      0.0029869654  -0.0028163503  -0.0052626868   210.34222      52.585554      52.585554     -0.0016973572   581646.81    
Loop time of 11.1877 on 1 procs for 500 steps with 94053 atoms

Performance: 3861.398 tau/day, 44.692 timesteps/s, 4.203 Matom-step/s
100.0% CPU use with 1 MPI tasks x 1 OpenMP threads

MPI task timing breakdown:
Section |  min time  |  avg time  |  max time  |%varavg| %total
---------------------------------------------------------------
Pair    | 8.9568     | 8.9568     | 8.9568     |   0.0 | 80.06
Neigh   | 0.24617    | 0.24617    | 0.24617    |   0.0 |  2.20
Comm    | 0.099258   | 0.099258   | 0.099258   |   0.0 |  0.89
Output  | 0.00057521 | 0.00057521 | 0.00057521 |   0.0 |  0.01
Modify  | 1.6865     | 1.6865     | 1.6865     |   0.0 | 15.07
Other   |            | 0.1984     |            |       |  1.77

Nlocal:          94053 ave       94053 max       94053 min
Histogram: 1 0 0 0 0 0 0 0 0 0
Nghost:          22482 ave       22482 max       22482 min
Histogram: 1 0 0 0 0 0 0 0 0 0
Neighs:         858574 ave      858574 max      858574 min
Histogram: 1 0 0 0 0 0 0 0 0 0

Total # of neighbors = 858574
Ave neighs/atom = 9.128619
Neighbor list builds = 4
Dangerous builds = 0
next a
jump s_hydro2 loop
                group g5 type 5 5
44965 atoms in group g5

variable        n5 equal count(g5)
variable        rmn equal 109 #dehydration amount 3925, for the original sample replication of 72x4x4, for smaller sample of 8x2x2, should be 36 times smaller
variable        fraction equal ${rmn}/${n5}
variable        fraction equal 109/${n5}
variable        fraction equal 109/44965
if "${fraction} > 1.0" then "jump s_hydro2 breakloop"
                set group g5 type/fraction 9 ${fraction} 11
                set group g5 type/fraction 9 0.00242410763927499 11
Setting atom values ...
  104 settings made for type/fraction

                group g9 type 9 9
104 atoms in group g9
                delete_atoms group g9
Deleted 104 atoms, new total = 93949
                group g5 delete
                group g9 delete
run             500#test!0
Generated 0 of 36 mixed pair_coeff terms from geometric mixing rule
Per MPI rank memory allocation (min/avg/max) = 44.31 | 44.31 | 44.31 Mbytes
   Step          Temp          PotEng         KinEng         TotEng          Pxx            Pyy            Pzz             Lx             Ly             Lz           Press          Volume    
     20000   0.040022957   -21.054218      0.060033796   -20.994185      0.0029653025  -0.0028344409  -0.0052779944   210.34222      52.585554      52.585554     -0.0017157109   581646.81    
     20500   0.040055594   -21.054528      0.060082752   -20.994445      0.006289264    0.0082239093   0.0076244528   210.59777      52.649443      52.649443      0.0073792087   583769.4     
Loop time of 11.5937 on 1 procs for 500 steps with 93949 atoms

Performance: 3726.148 tau/day, 43.127 timesteps/s, 4.052 Matom-step/s
100.0% CPU use with 1 MPI tasks x 1 OpenMP threads

MPI task timing breakdown:
Section |  min time  |  avg time  |  max time  |%varavg| %total
---------------------------------------------------------------
Pair    | 9.2511     | 9.2511     | 9.2511     |   0.0 | 79.79
Neigh   | 0.23785    | 0.23785    | 0.23785    |   0.0 |  2.05
Comm    | 0.10524    | 0.10524    | 0.10524    |   0.0 |  0.91
Output  | 0.00079911 | 0.00079911 | 0.00079911 |   0.0 |  0.01
Modify  | 1.79       | 1.79       | 1.79       |   0.0 | 15.44
Other   |            | 0.2088     |            |       |  1.80

Nlocal:          93949 ave       93949 max       93949 min
Histogram: 1 0 0 0 0 0 0 0 0 0
Nghost:          22368 ave       22368 max       22368 min
Histogram: 1 0 0 0 0 0 0 0 0 0
Neighs:         857275 ave      857275 max      857275 min
Histogram: 1 0 0 0 0 0 0 0 0 0

Total # of neighbors = 857275
Ave neighs/atom = 9.1248976
Neighbor list builds = 4
Dangerous builds = 0
next a
jump s_hydro2 loop
                group g5 type 5 5
44861 atoms in group g5

variable        n5 equal count(g5)
variable        rmn equal 109 #dehydration amount 3925, for the original sample replication of 72x4x4, for smaller sample of 8x2x2, should be 36 times smaller
variable        fraction equal ${rmn}/${n5}
variable        fraction equal 109/${n5}
variable        fraction equal 109/44861
if "${fraction} > 1.0" then "jump s_hydro2 breakloop"
                set group g5 type/fraction 9 ${fraction} 11
                set group g5 type/fraction 9 0.00242972738012973 11
Setting atom values ...
  115 settings made for type/fraction

                group g9 type 9 9
115 atoms in group g9
                delete_atoms group g9
Deleted 115 atoms, new total = 93834
                group g5 delete
                group g9 delete
run             500#test!0
Generated 0 of 36 mixed pair_coeff terms from geometric mixing rule
Per MPI rank memory allocation (min/avg/max) = 44.31 | 44.31 | 44.31 Mbytes
   Step          Temp          PotEng         KinEng         TotEng          Pxx            Pyy            Pzz             Lx             Ly             Lz           Press          Volume    
     20500   0.040094431   -21.080305      0.060141005   -21.020164      0.0062708563   0.0082025315   0.0076036194   210.59777      52.649443      52.649443      0.0073590024   583769.4     
     21000   0.039966592   -21.080915      0.05994925    -21.020966      0.0040933283   0.00019526257  0.0055796998   210.84008      52.71002       52.71002       0.0032894302   585786.74    
Loop time of 10.6808 on 1 procs for 500 steps with 93834 atoms

Performance: 4044.650 tau/day, 46.813 timesteps/s, 4.393 Matom-step/s
100.0% CPU use with 1 MPI tasks x 1 OpenMP threads

MPI task timing breakdown:
Section |  min time  |  avg time  |  max time  |%varavg| %total
---------------------------------------------------------------
Pair    | 8.6413     | 8.6413     | 8.6413     |   0.0 | 80.91
Neigh   | 0.24976    | 0.24976    | 0.24976    |   0.0 |  2.34
Comm    | 0.086048   | 0.086048   | 0.086048   |   0.0 |  0.81
Output  | 0.00059281 | 0.00059281 | 0.00059281 |   0.0 |  0.01
Modify  | 1.52       | 1.52       | 1.52       |   0.0 | 14.23
Other   |            | 0.1831     |            |       |  1.71

Nlocal:          93834 ave       93834 max       93834 min
Histogram: 1 0 0 0 0 0 0 0 0 0
Nghost:          22282 ave       22282 max       22282 min
Histogram: 1 0 0 0 0 0 0 0 0 0
Neighs:         855883 ave      855883 max      855883 min
Histogram: 1 0 0 0 0 0 0 0 0 0

Total # of neighbors = 855883
Ave neighs/atom = 9.121246
Neighbor list builds = 4
Dangerous builds = 0
next a
jump s_hydro2 loop
                group g5 type 5 5
44746 atoms in group g5

variable        n5 equal count(g5)
variable        rmn equal 109 #dehydration amount 3925, for the original sample replication of 72x4x4, for smaller sample of 8x2x2, should be 36 times smaller
variable        fraction equal ${rmn}/${n5}
variable        fraction equal 109/${n5}
variable        fraction equal 109/44746
if "${fraction} > 1.0" then "jump s_hydro2 breakloop"
                set group g5 type/fraction 9 ${fraction} 11
                set group g5 type/fraction 9 0.00243597193045188 11
Setting atom values ...
  125 settings made for type/fraction

                group g9 type 9 9
125 atoms in group g9
                delete_atoms group g9
Deleted 125 atoms, new total = 93709
                group g5 delete
                group g9 delete
run             500#test!0
Generated 0 of 36 mixed pair_coeff terms from geometric mixing rule
Per MPI rank memory allocation (min/avg/max) = 44.31 | 44.31 | 44.31 Mbytes
   Step          Temp          PotEng         KinEng         TotEng          Pxx            Pyy            Pzz             Lx             Ly             Lz           Press          Volume    
     21000   0.040005267   -21.108991      0.060007261   -21.048984      0.0040745753   0.0001735114   0.0055580977   210.84008      52.71002       52.71002       0.0032687281   585786.74    
     21500   0.03997671    -21.109354      0.059964424   -21.049389      0.0049640583   0.0079069593   0.0092259859   211.07312      52.768279      52.768279      0.0073656678   587731.26    
Loop time of 10.9456 on 1 procs for 500 steps with 93709 atoms

Performance: 3946.780 tau/day, 45.680 timesteps/s, 4.281 Matom-step/s
100.0% CPU use with 1 MPI tasks x 1 OpenMP threads

MPI task timing breakdown:
Section |  min time  |  avg time  |  max time  |%varavg| %total
---------------------------------------------------------------
Pair    | 8.7746     | 8.7746     | 8.7746     |   0.0 | 80.17
Neigh   | 0.24068    | 0.24068    | 0.24068    |   0.0 |  2.20
Comm    | 0.090954   | 0.090954   | 0.090954   |   0.0 |  0.83
Output  | 0.00058811 | 0.00058811 | 0.00058811 |   0.0 |  0.01
Modify  | 1.6419     | 1.6419     | 1.6419     |   0.0 | 15.00
Other   |            | 0.1969     |            |       |  1.80

Nlocal:          93709 ave       93709 max       93709 min
Histogram: 1 0 0 0 0 0 0 0 0 0
Nghost:          22201 ave       22201 max       22201 min
Histogram: 1 0 0 0 0 0 0 0 0 0
Neighs:         854397 ave      854397 max      854397 min
Histogram: 1 0 0 0 0 0 0 0 0 0

Total # of neighbors = 854397
Ave neighs/atom = 9.1175554
Neighbor list builds = 4
Dangerous builds = 0
next a
jump s_hydro2 loop
                group g5 type 5 5
44621 atoms in group g5

variable        n5 equal count(g5)
variable        rmn equal 109 #dehydration amount 3925, for the original sample replication of 72x4x4, for smaller sample of 8x2x2, should be 36 times smaller
variable        fraction equal ${rmn}/${n5}
variable        fraction equal 109/${n5}
variable        fraction equal 109/44621
if "${fraction} > 1.0" then "jump s_hydro2 breakloop"
                set group g5 type/fraction 9 ${fraction} 11
                set group g5 type/fraction 9 0.00244279599291813 11
Setting atom values ...
  114 settings made for type/fraction

                group g9 type 9 9
114 atoms in group g9
                delete_atoms group g9
Deleted 114 atoms, new total = 93595
                group g5 delete
                group g9 delete
run             500#test!0
Generated 0 of 36 mixed pair_coeff terms from geometric mixing rule
Per MPI rank memory allocation (min/avg/max) = 44.31 | 44.31 | 44.31 Mbytes
   Step          Temp          PotEng         KinEng         TotEng          Pxx            Pyy            Pzz             Lx             Ly             Lz           Press          Volume    
     21500   0.040012905   -21.135013      0.060018716   -21.074994      0.0049483255   0.0078931627   0.009210474    211.07312      52.768279      52.768279      0.0073506541   587731.26    
     22000   0.039952139   -21.13507       0.059927568   -21.075142      0.0016813      0.0033467511  -0.00072197661  211.29786      52.824465      52.824465      0.0014353581   589610.66    
Loop time of 10.9905 on 1 procs for 500 steps with 93595 atoms

Performance: 3930.671 tau/day, 45.494 timesteps/s, 4.258 Matom-step/s
100.0% CPU use with 1 MPI tasks x 1 OpenMP threads

MPI task timing breakdown:
Section |  min time  |  avg time  |  max time  |%varavg| %total
---------------------------------------------------------------
Pair    | 8.7897     | 8.7897     | 8.7897     |   0.0 | 79.98
Neigh   | 0.18046    | 0.18046    | 0.18046    |   0.0 |  1.64
Comm    | 0.09026    | 0.09026    | 0.09026    |   0.0 |  0.82
Output  | 0.00065391 | 0.00065391 | 0.00065391 |   0.0 |  0.01
Modify  | 1.7284     | 1.7284     | 1.7284     |   0.0 | 15.73
Other   |            | 0.201      |            |       |  1.83

Nlocal:          93595 ave       93595 max       93595 min
Histogram: 1 0 0 0 0 0 0 0 0 0
Nghost:          22135 ave       22135 max       22135 min
Histogram: 1 0 0 0 0 0 0 0 0 0
Neighs:         852866 ave      852866 max      852866 min
Histogram: 1 0 0 0 0 0 0 0 0 0

Total # of neighbors = 852866
Ave neighs/atom = 9.112303
Neighbor list builds = 3
Dangerous builds = 0
next a
jump s_hydro2 loop
                group g5 type 5 5
44507 atoms in group g5

variable        n5 equal count(g5)
variable        rmn equal 109 #dehydration amount 3925, for the original sample replication of 72x4x4, for smaller sample of 8x2x2, should be 36 times smaller
variable        fraction equal ${rmn}/${n5}
variable        fraction equal 109/${n5}
variable        fraction equal 109/44507
if "${fraction} > 1.0" then "jump s_hydro2 breakloop"
                set group g5 type/fraction 9 ${fraction} 11
                set group g5 type/fraction 9 0.00244905295796167 11
Setting atom values ...
  102 settings made for type/fraction

                group g9 type 9 9
102 atoms in group g9
                delete_atoms group g9
Deleted 102 atoms, new total = 93493
                group g5 delete
                group g9 delete
run             500#test!0
Generated 0 of 36 mixed pair_coeff terms from geometric mixing rule
Per MPI rank memory allocation (min/avg/max) = 44.35 | 44.35 | 44.35 Mbytes
   Step          Temp          PotEng         KinEng         TotEng          Pxx            Pyy            Pzz             Lx             Ly             Lz           Press          Volume    
     22000   0.039984283   -21.158084      0.059975782   -21.098108      0.0016611319   0.0033310305  -0.00074012945  211.29786      52.824465      52.824465      0.0014173443   589610.66    
     22500   0.039724362   -21.157841      0.059585906   -21.098255      0.0012814209   0.0073910093   0.0073497378   211.5199       52.879976      52.879976      0.0053407227   591471.38    
Loop time of 10.9919 on 1 procs for 500 steps with 93493 atoms

Performance: 3930.173 tau/day, 45.488 timesteps/s, 4.253 Matom-step/s
100.0% CPU use with 1 MPI tasks x 1 OpenMP threads

MPI task timing breakdown:
Section |  min time  |  avg time  |  max time  |%varavg| %total
---------------------------------------------------------------
Pair    | 8.8236     | 8.8236     | 8.8236     |   0.0 | 80.27
Neigh   | 0.18258    | 0.18258    | 0.18258    |   0.0 |  1.66
Comm    | 0.096953   | 0.096953   | 0.096953   |   0.0 |  0.88
Output  | 0.00056181 | 0.00056181 | 0.00056181 |   0.0 |  0.01
Modify  | 1.6854     | 1.6854     | 1.6854     |   0.0 | 15.33
Other   |            | 0.2027     |            |       |  1.84

Nlocal:          93493 ave       93493 max       93493 min
Histogram: 1 0 0 0 0 0 0 0 0 0
Nghost:          22058 ave       22058 max       22058 min
Histogram: 1 0 0 0 0 0 0 0 0 0
Neighs:         851381 ave      851381 max      851381 min
Histogram: 1 0 0 0 0 0 0 0 0 0

Total # of neighbors = 851381
Ave neighs/atom = 9.1063609
Neighbor list builds = 3
Dangerous builds = 0
next a
jump s_hydro2 loop
                group g5 type 5 5
44405 atoms in group g5

variable        n5 equal count(g5)
variable        rmn equal 109 #dehydration amount 3925, for the original sample replication of 72x4x4, for smaller sample of 8x2x2, should be 36 times smaller
variable        fraction equal ${rmn}/${n5}
variable        fraction equal 109/${n5}
variable        fraction equal 109/44405
if "${fraction} > 1.0" then "jump s_hydro2 breakloop"
                set group g5 type/fraction 9 ${fraction} 11
                set group g5 type/fraction 9 0.00245467852719288 11
Setting atom values ...
  103 settings made for type/fraction

                group g9 type 9 9
103 atoms in group g9
                delete_atoms group g9
Deleted 103 atoms, new total = 93390
                group g5 delete
                group g9 delete
run             500#test!0
Generated 0 of 36 mixed pair_coeff terms from geometric mixing rule
Per MPI rank memory allocation (min/avg/max) = 44.35 | 44.35 | 44.35 Mbytes
   Step          Temp          PotEng         KinEng         TotEng          Pxx            Pyy            Pzz             Lx             Ly             Lz           Press          Volume    
     22500   0.039755124   -21.181143      0.059632048   -21.121511      0.0012668264   0.0073773067   0.0073370498   211.5199       52.879976      52.879976      0.005327061    591471.38    
     23000   0.040226302   -21.181912      0.060338808   -21.121574      0.0082378211   0.0022315933   0.00051838393  211.74637      52.936592      52.936592      0.0036625995   593373.19    
Loop time of 11.2269 on 1 procs for 500 steps with 93390 atoms

Performance: 3847.889 tau/day, 44.536 timesteps/s, 4.159 Matom-step/s
100.0% CPU use with 1 MPI tasks x 1 OpenMP threads

MPI task timing breakdown:
Section |  min time  |  avg time  |  max time  |%varavg| %total
---------------------------------------------------------------
Pair    | 9.0242     | 9.0242     | 9.0242     |   0.0 | 80.38
Neigh   | 0.18044    | 0.18044    | 0.18044    |   0.0 |  1.61
Comm    | 0.10351    | 0.10351    | 0.10351    |   0.0 |  0.92
Output  | 0.00056811 | 0.00056811 | 0.00056811 |   0.0 |  0.01
Modify  | 1.7145     | 1.7145     | 1.7145     |   0.0 | 15.27
Other   |            | 0.2038     |            |       |  1.81

Nlocal:          93390 ave       93390 max       93390 min
Histogram: 1 0 0 0 0 0 0 0 0 0
Nghost:          21947 ave       21947 max       21947 min
Histogram: 1 0 0 0 0 0 0 0 0 0
Neighs:         849707 ave      849707 max      849707 min
Histogram: 1 0 0 0 0 0 0 0 0 0

Total # of neighbors = 849707
Ave neighs/atom = 9.0984795
Neighbor list builds = 3
Dangerous builds = 0
next a
jump s_hydro2 loop
                group g5 type 5 5
44302 atoms in group g5

variable        n5 equal count(g5)
variable        rmn equal 109 #dehydration amount 3925, for the original sample replication of 72x4x4, for smaller sample of 8x2x2, should be 36 times smaller
variable        fraction equal ${rmn}/${n5}
variable        fraction equal 109/${n5}
variable        fraction equal 109/44302
if "${fraction} > 1.0" then "jump s_hydro2 breakloop"
                set group g5 type/fraction 9 ${fraction} 11
                set group g5 type/fraction 9 0.00246038553564173 11
Setting atom values ...
  115 settings made for type/fraction

                group g9 type 9 9
115 atoms in group g9
                delete_atoms group g9
Deleted 115 atoms, new total = 93275
                group g5 delete
                group g9 delete
run             500#test!0
Generated 0 of 36 mixed pair_coeff terms from geometric mixing rule
Per MPI rank memory allocation (min/avg/max) = 44.35 | 44.35 | 44.35 Mbytes
   Step          Temp          PotEng         KinEng         TotEng          Pxx            Pyy            Pzz             Lx             Ly             Lz           Press          Volume    
     23000   0.040266235   -21.207977      0.060398705   -21.147578      0.008222224    0.002216377    0.00049547518  211.74637      52.936592      52.936592      0.0036446921   593373.19    
     23500   0.039926565   -21.208081      0.059889206   -21.148192     -0.0012590868   0.0086230307   0.0018439624   211.95499      52.988748      52.988748      0.0030693021   595128.8     
Loop time of 11.2467 on 1 procs for 500 steps with 93275 atoms

Performance: 3841.143 tau/day, 44.458 timesteps/s, 4.147 Matom-step/s
100.0% CPU use with 1 MPI tasks x 1 OpenMP threads

MPI task timing breakdown:
Section |  min time  |  avg time  |  max time  |%varavg| %total
---------------------------------------------------------------
Pair    | 9.0625     | 9.0625     | 9.0625     |   0.0 | 80.58
Neigh   | 0.18424    | 0.18424    | 0.18424    |   0.0 |  1.64
Comm    | 0.097288   | 0.097288   | 0.097288   |   0.0 |  0.87
Output  | 0.00060941 | 0.00060941 | 0.00060941 |   0.0 |  0.01
Modify  | 1.7011     | 1.7011     | 1.7011     |   0.0 | 15.13
Other   |            | 0.2009     |            |       |  1.79

Nlocal:          93275 ave       93275 max       93275 min
Histogram: 1 0 0 0 0 0 0 0 0 0
Nghost:          21905 ave       21905 max       21905 min
Histogram: 1 0 0 0 0 0 0 0 0 0
Neighs:         848321 ave      848321 max      848321 min
Histogram: 1 0 0 0 0 0 0 0 0 0

Total # of neighbors = 848321
Ave neighs/atom = 9.0948378
Neighbor list builds = 3
Dangerous builds = 0
next a
jump s_hydro2 loop
                group g5 type 5 5
44187 atoms in group g5

variable        n5 equal count(g5)
variable        rmn equal 109 #dehydration amount 3925, for the original sample replication of 72x4x4, for smaller sample of 8x2x2, should be 36 times smaller
variable        fraction equal ${rmn}/${n5}
variable        fraction equal 109/${n5}
variable        fraction equal 109/44187
if "${fraction} > 1.0" then "jump s_hydro2 breakloop"
                set group g5 type/fraction 9 ${fraction} 11
                set group g5 type/fraction 9 0.00246678887455586 11
Setting atom values ...
  109 settings made for type/fraction

                group g9 type 9 9
109 atoms in group g9
                delete_atoms group g9
Deleted 109 atoms, new total = 93166
                group g5 delete
                group g9 delete
run             500#test!0
Generated 0 of 36 mixed pair_coeff terms from geometric mixing rule
Per MPI rank memory allocation (min/avg/max) = 44.35 | 44.35 | 44.35 Mbytes
   Step          Temp          PotEng         KinEng         TotEng          Pxx            Pyy            Pzz             Lx             Ly             Lz           Press          Volume    
     23500   0.039961147   -21.232851      0.059941077   -21.17291      -0.0012687065   0.0086100569   0.0018307537   211.95499      52.988748      52.988748      0.003057368    595128.8     
     24000   0.040194287   -21.233175      0.060290783   -21.172884      0.0037699152  -0.0003858264   0.00080512192  212.14832      53.037079      53.037079      0.0013964036   596758.74    
Loop time of 10.6589 on 1 procs for 500 steps with 93166 atoms

Performance: 4052.943 tau/day, 46.909 timesteps/s, 4.370 Matom-step/s
100.0% CPU use with 1 MPI tasks x 1 OpenMP threads

MPI task timing breakdown:
Section |  min time  |  avg time  |  max time  |%varavg| %total
---------------------------------------------------------------
Pair    | 8.6831     | 8.6831     | 8.6831     |   0.0 | 81.46
Neigh   | 0.17866    | 0.17866    | 0.17866    |   0.0 |  1.68
Comm    | 0.085615   | 0.085615   | 0.085615   |   0.0 |  0.80
Output  | 0.00086091 | 0.00086091 | 0.00086091 |   0.0 |  0.01
Modify  | 1.5263     | 1.5263     | 1.5263     |   0.0 | 14.32
Other   |            | 0.1845     |            |       |  1.73

Nlocal:          93166 ave       93166 max       93166 min
Histogram: 1 0 0 0 0 0 0 0 0 0
Nghost:          21807 ave       21807 max       21807 min
Histogram: 1 0 0 0 0 0 0 0 0 0
Neighs:         847070 ave      847070 max      847070 min
Histogram: 1 0 0 0 0 0 0 0 0 0

Total # of neighbors = 847070
Ave neighs/atom = 9.0920507
Neighbor list builds = 3
Dangerous builds = 0
next a
jump s_hydro2 loop
                group g5 type 5 5
44078 atoms in group g5

variable        n5 equal count(g5)
variable        rmn equal 109 #dehydration amount 3925, for the original sample replication of 72x4x4, for smaller sample of 8x2x2, should be 36 times smaller
variable        fraction equal ${rmn}/${n5}
variable        fraction equal 109/${n5}
variable        fraction equal 109/44078
if "${fraction} > 1.0" then "jump s_hydro2 breakloop"
                set group g5 type/fraction 9 ${fraction} 11
                set group g5 type/fraction 9 0.00247288896955397 11
Setting atom values ...
  112 settings made for type/fraction

                group g9 type 9 9
112 atoms in group g9
                delete_atoms group g9
Deleted 112 atoms, new total = 93054
                group g5 delete
                group g9 delete
run             500#test!0
Generated 0 of 36 mixed pair_coeff terms from geometric mixing rule
Per MPI rank memory allocation (min/avg/max) = 44.35 | 44.35 | 44.35 Mbytes
   Step          Temp          PotEng         KinEng         TotEng          Pxx            Pyy            Pzz             Lx             Ly             Lz           Press          Volume    
     24000   0.040231475   -21.258704      0.060346564   -21.198357      0.0037522125  -0.00040500793  0.00078704105  212.14832      53.037079      53.037079      0.0013780819   596758.74    
     24500   0.040227802   -21.258729      0.060341055   -21.198388      0.0093063382   0.013422882    0.0071450342   212.34202      53.085505      53.085505      0.0099580849   598394.87    
Loop time of 10.744 on 1 procs for 500 steps with 93054 atoms

Performance: 4020.860 tau/day, 46.538 timesteps/s, 4.331 Matom-step/s
100.0% CPU use with 1 MPI tasks x 1 OpenMP threads

MPI task timing breakdown:
Section |  min time  |  avg time  |  max time  |%varavg| %total
---------------------------------------------------------------
Pair    | 8.7299     | 8.7299     | 8.7299     |   0.0 | 81.25
Neigh   | 0.17441    | 0.17441    | 0.17441    |   0.0 |  1.62
Comm    | 0.086809   | 0.086809   | 0.086809   |   0.0 |  0.81
Output  | 0.00067541 | 0.00067541 | 0.00067541 |   0.0 |  0.01
Modify  | 1.5628     | 1.5628     | 1.5628     |   0.0 | 14.55
Other   |            | 0.1894     |            |       |  1.76

Nlocal:          93054 ave       93054 max       93054 min
Histogram: 1 0 0 0 0 0 0 0 0 0
Nghost:          21701 ave       21701 max       21701 min
Histogram: 1 0 0 0 0 0 0 0 0 0
Neighs:         845649 ave      845649 max      845649 min
Histogram: 1 0 0 0 0 0 0 0 0 0

Total # of neighbors = 845649
Ave neighs/atom = 9.0877233
Neighbor list builds = 3
Dangerous builds = 0
next a
jump s_hydro2 loop
                group g5 type 5 5
43966 atoms in group g5

variable        n5 equal count(g5)
variable        rmn equal 109 #dehydration amount 3925, for the original sample replication of 72x4x4, for smaller sample of 8x2x2, should be 36 times smaller
variable        fraction equal ${rmn}/${n5}
variable        fraction equal 109/${n5}
variable        fraction equal 109/43966
if "${fraction} > 1.0" then "jump s_hydro2 breakloop"
                set group g5 type/fraction 9 ${fraction} 11
                set group g5 type/fraction 9 0.00247918846381295 11
Setting atom values ...
  103 settings made for type/fraction

                group g9 type 9 9
103 atoms in group g9
                delete_atoms group g9
Deleted 103 atoms, new total = 92951
                group g5 delete
                group g9 delete
run             500#test!0
Generated 0 of 36 mixed pair_coeff terms from geometric mixing rule
Per MPI rank memory allocation (min/avg/max) = 44.35 | 44.35 | 44.35 Mbytes
   Step          Temp          PotEng         KinEng         TotEng          Pxx            Pyy            Pzz             Lx             Ly             Lz           Press          Volume    
     24500   0.04026324    -21.282247      0.06039421    -21.221853      0.0092911144   0.013410166    0.0071327728   212.34202      53.085505      53.085505      0.0099446844   598394.87    
     25000   0.040070318   -21.282544      0.06010483    -21.222439      0.0043432674  -0.0034820387  -0.00070123096  212.53152      53.132879      53.132879      5.3332573e-05  599998.34    
Loop time of 10.4967 on 1 procs for 500 steps with 92951 atoms

Performance: 4115.584 tau/day, 47.634 timesteps/s, 4.428 Matom-step/s
100.0% CPU use with 1 MPI tasks x 1 OpenMP threads

MPI task timing breakdown:
Section |  min time  |  avg time  |  max time  |%varavg| %total
---------------------------------------------------------------
Pair    | 8.5255     | 8.5255     | 8.5255     |   0.0 | 81.22
Neigh   | 0.23334    | 0.23334    | 0.23334    |   0.0 |  2.22
Comm    | 0.080498   | 0.080498   | 0.080498   |   0.0 |  0.77
Output  | 0.00055131 | 0.00055131 | 0.00055131 |   0.0 |  0.01
Modify  | 1.4807     | 1.4807     | 1.4807     |   0.0 | 14.11
Other   |            | 0.176      |            |       |  1.68

Nlocal:          92951 ave       92951 max       92951 min
Histogram: 1 0 0 0 0 0 0 0 0 0
Nghost:          21679 ave       21679 max       21679 min
Histogram: 1 0 0 0 0 0 0 0 0 0
Neighs:         844845 ave      844845 max      844845 min
Histogram: 1 0 0 0 0 0 0 0 0 0

Total # of neighbors = 844845
Ave neighs/atom = 9.0891437
Neighbor list builds = 4
Dangerous builds = 0
next a
jump s_hydro2 loop
                group g5 type 5 5
43863 atoms in group g5

variable        n5 equal count(g5)
variable        rmn equal 109 #dehydration amount 3925, for the original sample replication of 72x4x4, for smaller sample of 8x2x2, should be 36 times smaller
variable        fraction equal ${rmn}/${n5}
variable        fraction equal 109/${n5}
variable        fraction equal 109/43863
if "${fraction} > 1.0" then "jump s_hydro2 breakloop"
                set group g5 type/fraction 9 ${fraction} 11
                set group g5 type/fraction 9 0.0024850101452249 11
Setting atom values ...
  102 settings made for type/fraction

                group g9 type 9 9
102 atoms in group g9
                delete_atoms group g9
Deleted 102 atoms, new total = 92849
                group g5 delete
                group g9 delete
run             500#test!0
Generated 0 of 36 mixed pair_coeff terms from geometric mixing rule
Per MPI rank memory allocation (min/avg/max) = 44.35 | 44.35 | 44.35 Mbytes
   Step          Temp          PotEng         KinEng         TotEng          Pxx            Pyy            Pzz             Lx             Ly             Lz           Press          Volume    
     25000   0.040103563   -21.305888      0.060154696   -21.245733      0.0043290016  -0.0034980435  -0.00071924021  212.53152      53.132879      53.132879      3.7239295e-05  599998.34    
     25500   0.040067591   -21.306198      0.06010074    -21.246097      0.0020339331  -0.0012002989  -0.0033826884   212.71087      53.177718      53.177718     -0.00084968474  601518.63    
Loop time of 10.5433 on 1 procs for 500 steps with 92849 atoms

Performance: 4097.390 tau/day, 47.423 timesteps/s, 4.403 Matom-step/s
100.0% CPU use with 1 MPI tasks x 1 OpenMP threads

MPI task timing breakdown:
Section |  min time  |  avg time  |  max time  |%varavg| %total
---------------------------------------------------------------
Pair    | 8.5648     | 8.5648     | 8.5648     |   0.0 | 81.23
Neigh   | 0.22986    | 0.22986    | 0.22986    |   0.0 |  2.18
Comm    | 0.082146   | 0.082146   | 0.082146   |   0.0 |  0.78
Output  | 0.00055561 | 0.00055561 | 0.00055561 |   0.0 |  0.01
Modify  | 1.4871     | 1.4871     | 1.4871     |   0.0 | 14.11
Other   |            | 0.1788     |            |       |  1.70

Nlocal:          92849 ave       92849 max       92849 min
Histogram: 1 0 0 0 0 0 0 0 0 0
Nghost:          21637 ave       21637 max       21637 min
Histogram: 1 0 0 0 0 0 0 0 0 0
Neighs:         843353 ave      843353 max      843353 min
Histogram: 1 0 0 0 0 0 0 0 0 0

Total # of neighbors = 843353
Ave neighs/atom = 9.0830596
Neighbor list builds = 4
Dangerous builds = 0
next a
jump s_hydro2 loop
                group g5 type 5 5
43761 atoms in group g5

variable        n5 equal count(g5)
variable        rmn equal 109 #dehydration amount 3925, for the original sample replication of 72x4x4, for smaller sample of 8x2x2, should be 36 times smaller
variable        fraction equal ${rmn}/${n5}
variable        fraction equal 109/${n5}
variable        fraction equal 109/43761
if "${fraction} > 1.0" then "jump s_hydro2 breakloop"
                set group g5 type/fraction 9 ${fraction} 11
                set group g5 type/fraction 9 0.00249080231256141 11
Setting atom values ...
  100 settings made for type/fraction

                group g9 type 9 9
100 atoms in group g9
                delete_atoms group g9
Deleted 100 atoms, new total = 92749
                group g5 delete
                group g9 delete
run             500#test!0
Generated 0 of 36 mixed pair_coeff terms from geometric mixing rule
Per MPI rank memory allocation (min/avg/max) = 44.35 | 44.35 | 44.35 Mbytes
   Step          Temp          PotEng         KinEng         TotEng          Pxx            Pyy            Pzz             Lx             Ly             Lz           Press          Volume    
     25500   0.04010111    -21.329137      0.060151016   -21.268986      0.0020211703  -0.0012124872  -0.0033958405   212.71087      53.177718      53.177718     -0.00086238579  601518.63    
     26000   0.040030716   -21.329477      0.060045426   -21.269432      0.007410126    0.0013538932   0.00073213924  212.88742      53.221855      53.221855      0.0031653861   603017.62    
Loop time of 10.3161 on 1 procs for 500 steps with 92749 atoms

Performance: 4187.647 tau/day, 48.468 timesteps/s, 4.495 Matom-step/s
100.0% CPU use with 1 MPI tasks x 1 OpenMP threads

MPI task timing breakdown:
Section |  min time  |  avg time  |  max time  |%varavg| %total
---------------------------------------------------------------
Pair    | 8.3992     | 8.3992     | 8.3992     |   0.0 | 81.42
Neigh   | 0.23414    | 0.23414    | 0.23414    |   0.0 |  2.27
Comm    | 0.077381   | 0.077381   | 0.077381   |   0.0 |  0.75
Output  | 0.00055311 | 0.00055311 | 0.00055311 |   0.0 |  0.01
Modify  | 1.4312     | 1.4312     | 1.4312     |   0.0 | 13.87
Other   |            | 0.1736     |            |       |  1.68

Nlocal:          92749 ave       92749 max       92749 min
Histogram: 1 0 0 0 0 0 0 0 0 0
Nghost:          21586 ave       21586 max       21586 min
Histogram: 1 0 0 0 0 0 0 0 0 0
Neighs:         842643 ave      842643 max      842643 min
Histogram: 1 0 0 0 0 0 0 0 0 0

Total # of neighbors = 842643
Ave neighs/atom = 9.0851977
Neighbor list builds = 4
Dangerous builds = 0
next a
jump s_hydro2 loop
                group g5 type 5 5
43661 atoms in group g5

variable        n5 equal count(g5)
variable        rmn equal 109 #dehydration amount 3925, for the original sample replication of 72x4x4, for smaller sample of 8x2x2, should be 36 times smaller
variable        fraction equal ${rmn}/${n5}
variable        fraction equal 109/${n5}
variable        fraction equal 109/43661
if "${fraction} > 1.0" then "jump s_hydro2 breakloop"
                set group g5 type/fraction 9 ${fraction} 11
                set group g5 type/fraction 9 0.00249650718032111 11
Setting atom values ...
  109 settings made for type/fraction

                group g9 type 9 9
109 atoms in group g9
                delete_atoms group g9
Deleted 109 atoms, new total = 92640
                group g5 delete
                group g9 delete
run             500#test!0
Generated 0 of 36 mixed pair_coeff terms from geometric mixing rule
Per MPI rank memory allocation (min/avg/max) = 44.36 | 44.36 | 44.36 Mbytes
   Step          Temp          PotEng         KinEng         TotEng          Pxx            Pyy            Pzz             Lx             Ly             Lz           Press          Volume    
     26000   0.040065555   -21.354537      0.060097684   -21.29444       0.0073969486   0.0013437431   0.00071993298  212.88742      53.221855      53.221855      0.0031535416   603017.62    
     26500   0.040056643   -21.354595      0.060084315   -21.29451       0.0003184909   0.0045705985   0.0086596218   213.06013      53.265033      53.265033      0.0045162371   604486.48    
Loop time of 10.4219 on 1 procs for 500 steps with 92640 atoms

Performance: 4145.108 tau/day, 47.976 timesteps/s, 4.444 Matom-step/s
99.9% CPU use with 1 MPI tasks x 1 OpenMP threads

MPI task timing breakdown:
Section |  min time  |  avg time  |  max time  |%varavg| %total
---------------------------------------------------------------
Pair    | 8.5108     | 8.5108     | 8.5108     |   0.0 | 81.66
Neigh   | 0.18023    | 0.18023    | 0.18023    |   0.0 |  1.73
Comm    | 0.082364   | 0.082364   | 0.082364   |   0.0 |  0.79
Output  | 0.00057941 | 0.00057941 | 0.00057941 |   0.0 |  0.01
Modify  | 1.4696     | 1.4696     | 1.4696     |   0.0 | 14.10
Other   |            | 0.1784     |            |       |  1.71

Nlocal:          92640 ave       92640 max       92640 min
Histogram: 1 0 0 0 0 0 0 0 0 0
Nghost:          21518 ave       21518 max       21518 min
Histogram: 1 0 0 0 0 0 0 0 0 0
Neighs:         841592 ave      841592 max      841592 min
Histogram: 1 0 0 0 0 0 0 0 0 0

Total # of neighbors = 841592
Ave neighs/atom = 9.0845423
Neighbor list builds = 3
Dangerous builds = 0
next a
jump s_hydro2 loop
                group g5 type 5 5
43552 atoms in group g5

variable        n5 equal count(g5)
variable        rmn equal 109 #dehydration amount 3925, for the original sample replication of 72x4x4, for smaller sample of 8x2x2, should be 36 times smaller
variable        fraction equal ${rmn}/${n5}
variable        fraction equal 109/${n5}
variable        fraction equal 109/43552
if "${fraction} > 1.0" then "jump s_hydro2 breakloop"
                set group g5 type/fraction 9 ${fraction} 11
                set group g5 type/fraction 9 0.00250275532696547 11
Setting atom values ...
  105 settings made for type/fraction

                group g9 type 9 9
105 atoms in group g9
                delete_atoms group g9
Deleted 105 atoms, new total = 92535
                group g5 delete
                group g9 delete
run             500#test!0
Generated 0 of 36 mixed pair_coeff terms from geometric mixing rule
Per MPI rank memory allocation (min/avg/max) = 44.36 | 44.36 | 44.36 Mbytes
   Step          Temp          PotEng         KinEng         TotEng          Pxx            Pyy            Pzz             Lx             Ly             Lz           Press          Volume    
     26500   0.040091013   -21.378788      0.06013587    -21.318652      0.00030637967  0.0045541295   0.0086475222   213.06013      53.265033      53.265033      0.0045026771   604486.48    
     27000   0.039926676   -21.37944       0.059889367   -21.319551      0.0069607505   0.0073014409   0.0053050484   213.23232      53.30808       53.30808       0.0065224133   605953.26    
Loop time of 10.9074 on 1 procs for 500 steps with 92535 atoms

Performance: 3960.599 tau/day, 45.840 timesteps/s, 4.242 Matom-step/s
100.0% CPU use with 1 MPI tasks x 1 OpenMP threads

MPI task timing breakdown:
Section |  min time  |  avg time  |  max time  |%varavg| %total
---------------------------------------------------------------
Pair    | 8.8623     | 8.8623     | 8.8623     |   0.0 | 81.25
Neigh   | 0.1827     | 0.1827     | 0.1827     |   0.0 |  1.68
Comm    | 0.090123   | 0.090123   | 0.090123   |   0.0 |  0.83
Output  | 0.00059031 | 0.00059031 | 0.00059031 |   0.0 |  0.01
Modify  | 1.5849     | 1.5849     | 1.5849     |   0.0 | 14.53
Other   |            | 0.1869     |            |       |  1.71

Nlocal:          92535 ave       92535 max       92535 min
Histogram: 1 0 0 0 0 0 0 0 0 0
Nghost:          21486 ave       21486 max       21486 min
Histogram: 1 0 0 0 0 0 0 0 0 0
Neighs:         840983 ave      840983 max      840983 min
Histogram: 1 0 0 0 0 0 0 0 0 0

Total # of neighbors = 840983
Ave neighs/atom = 9.0882693
Neighbor list builds = 3
Dangerous builds = 0
next a
[...]
Ave neighs/atom = 12.743151
Neighbor list builds = 2
Dangerous builds = 0
next a
jump s_hydro2 loop
                group g5 type 5 5
2818 atoms in group g5

variable        n5 equal count(g5)
variable        rmn equal 109 #dehydration amount 3925, for the original sample replication of 72x4x4, for smaller sample of 8x2x2, should be 36 times smaller
variable        fraction equal ${rmn}/${n5}
variable        fraction equal 109/${n5}
variable        fraction equal 109/2818
if "${fraction} > 1.0" then "jump s_hydro2 breakloop"
                set group g5 type/fraction 9 ${fraction} 11
                set group g5 type/fraction 9 0.038679914833215 11
Setting atom values ...
  103 settings made for type/fraction

                group g9 type 9 9
103 atoms in group g9
                delete_atoms group g9
Deleted 103 atoms, new total = 51803
                group g5 delete
                group g9 delete
run             500#test!0
Generated 0 of 36 mixed pair_coeff terms from geometric mixing rule
Per MPI rank memory allocation (min/avg/max) = 44.38 | 44.38 | 44.38 Mbytes
   Step          Temp          PotEng         KinEng         TotEng          Pxx            Pyy            Pzz             Lx             Ly             Lz           Press          Volume    
    214500   0.040014338   -38.241844      0.060020348   -38.181824      0.00063335259  0.0001664367   0.004946705    179.98895      44.997237      44.997237      0.0019154981   364432.87    
    215000   0.039863328   -38.241556      0.059793837   -38.181762     -0.0010425829   0.0071616082   0.0053238378   179.87963      44.969907      44.969907      0.0038142877   363769.23    
Loop time of 7.26884 on 1 procs for 500 steps with 51803 atoms

Performance: 5943.174 tau/day, 68.787 timesteps/s, 3.563 Matom-step/s
100.0% CPU use with 1 MPI tasks x 1 OpenMP threads

MPI task timing breakdown:
Section |  min time  |  avg time  |  max time  |%varavg| %total
---------------------------------------------------------------
Pair    | 6.3762     | 6.3762     | 6.3762     |   0.0 | 87.72
Neigh   | 0.069573   | 0.069573   | 0.069573   |   0.0 |  0.96
Comm    | 0.030373   | 0.030373   | 0.030373   |   0.0 |  0.42
Output  | 0.0003407  | 0.0003407  | 0.0003407  |   0.0 |  0.00
Modify  | 0.70441    | 0.70441    | 0.70441    |   0.0 |  9.69
Other   |            | 0.0879     |            |       |  1.21

Nlocal:          51803 ave       51803 max       51803 min
Histogram: 1 0 0 0 0 0 0 0 0 0
Nghost:          12469 ave       12469 max       12469 min
Histogram: 1 0 0 0 0 0 0 0 0 0
Neighs:         661114 ave      661114 max      661114 min
Histogram: 1 0 0 0 0 0 0 0 0 0

Total # of neighbors = 661114
Ave neighs/atom = 12.762079
Neighbor list builds = 2
Dangerous builds = 0
next a
jump s_hydro2 loop

label			breakloop
print			"out of loop, fraction is ${fraction}"
out of loop, fraction is 0.038679914833215

unfix           1
############turn on Hbond in soft segments###################
pair_coeff      7 8 10.0 ${k2} 1.2 0.79 1.0 2.8 #1 strong bond/2.2 attraction
pair_coeff      7 8 10.0 0.890898718140339 1.2 0.79 1.0 2.8 


pair_modify     tail no
pair_modify     shift yes
neighbor        0.5 bin
neigh_modify    every 1 delay 0 check yes


#################P change into 1######################
variable        pressurenow equal press
fix             1 all npt temp ${tf} ${tf} 0.01 iso ${pressurenow} 1 10
fix             1 all npt temp 0.04 ${tf} 0.01 iso ${pressurenow} 1 10
fix             1 all npt temp 0.04 0.04 0.01 iso ${pressurenow} 1 10
fix             1 all npt temp 0.04 0.04 0.01 iso 0.00381428768416782 1 10
run             10000#test!0
Generated 0 of 36 mixed pair_coeff terms from geometric mixing rule
Per MPI rank memory allocation (min/avg/max) = 44.38 | 44.38 | 44.38 Mbytes
   Step          Temp          PotEng         KinEng         TotEng          Pxx            Pyy            Pzz             Lx             Ly             Lz           Press          Volume    
    215000   0.039863328   -36.166654      0.059793837   -36.10686       0.066994835    0.053669721    0.049929395    179.87963      44.969907      44.969907      0.056864651    363769.23    
    216000   0.040114618   -36.272157      0.060170765   -36.211986     -0.00050916485 -0.0043102498   0.0012214281   178.35468      44.588671      44.588671     -0.0011993289   354595.79    
    218000   0.040023022   -36.274271      0.060033374   -36.214238     -0.0040254855  -0.0011590846  -0.0071685023   170.66982      42.667455      42.667455     -0.0041176908   310706.41    
    220000   0.04019432    -36.277243      0.060290316   -36.216952      0.0099480193   0.012040287    0.0058589596   162.00148      40.50037       40.50037       0.0092824221   265727.79    
    222000   0.04010095    -36.28148       0.060150264   -36.22133       0.0004462858   0.0087332465   0.01045685     153.25902      38.314756      38.314756      0.0065454606   224987.39    
    224000   0.039902676   -36.286129      0.059852858   -36.226277      0.014012938    0.008101492   -0.0051074837   144.84697      36.211743      36.211743      0.0056689821   189936.44    
    225000   0.039999486   -36.288775      0.059998071   -36.228777      0.0010391131  -0.0035235887   0.0011133635   140.82648      35.206621      35.206621     -0.00045703735  174555.29    
Loop time of 165.967 on 1 procs for 10000 steps with 51803 atoms

Performance: 5205.853 tau/day, 60.253 timesteps/s, 3.121 Matom-step/s
100.0% CPU use with 1 MPI tasks x 1 OpenMP threads

MPI task timing breakdown:
Section |  min time  |  avg time  |  max time  |%varavg| %total
---------------------------------------------------------------
Pair    | 140.71     | 140.71     | 140.71     |   0.0 | 84.78
Neigh   | 8.5677     | 8.5677     | 8.5677     |   0.0 |  5.16
Comm    | 0.88521    | 0.88521    | 0.88521    |   0.0 |  0.53
Output  | 0.0020267  | 0.0020267  | 0.0020267  |   0.0 |  0.00
Modify  | 13.993     | 13.993     | 13.993     |   0.0 |  8.43
Other   |            | 1.805      |            |       |  1.09

Nlocal:          51803 ave       51803 max       51803 min
Histogram: 1 0 0 0 0 0 0 0 0 0
Nghost:          20653 ave       20653 max       20653 min
Histogram: 1 0 0 0 0 0 0 0 0 0
Neighs:         719324 ave      719324 max      719324 min
Histogram: 1 0 0 0 0 0 0 0 0 0

Total # of neighbors = 719324
Ave neighs/atom = 13.88576
Neighbor list builds = 220
Dangerous builds = 0
unfix           1
################the second compression at high P (P = 1)##############
fix		1 all npt temp ${tf} ${tf} 0.01 iso 1 1 10
fix		1 all npt temp 0.04 ${tf} 0.01 iso 1 1 10
fix		1 all npt temp 0.04 0.04 0.01 iso 1 1 10
run		30000#test!0
Generated 0 of 36 mixed pair_coeff terms from geometric mixing rule
Per MPI rank memory allocation (min/avg/max) = 44.38 | 44.38 | 44.38 Mbytes
   Step          Temp          PotEng         KinEng         TotEng          Pxx            Pyy            Pzz             Lx             Ly             Lz           Press          Volume    
    225000   0.039999486   -36.288775      0.059998071   -36.228777      0.0010391131  -0.0035235887   0.0011133635   140.82648      35.206621      35.206621     -0.00045703735  174555.29    
    226000   0.040237453   -36.294621      0.060355014   -36.234266      0.051681332    0.042162368    0.024397375    135.87852      33.969629      33.969629      0.039413692    156795.07    
    228000   0.040096942   -36.300573      0.060144252   -36.240428      0.051694831    0.050240639    0.019860767    128.47785      32.119462      32.119462      0.040598746    132545.44    
    230000   0.039978853   -36.305633      0.059967122   -36.245666      0.088847905    0.068596527    0.045139045    122.50823      30.627058      30.627058      0.067527826    114914.76    
    232000   0.040049739   -36.309905      0.060073449   -36.249831      0.16851733     0.12815545     0.091264763    117.52578      29.381444      29.381444      0.12931251     101456.39    
    234000   0.040008936   -36.311898      0.060012246   -36.251886      0.22928122     0.22555588     0.21970001     113.38244      28.34561       28.34561       0.2248457      91099.799    
    236000   0.040107519   -36.306033      0.060160117   -36.245873      0.49452258     0.42502675     0.40243675     110.09486      27.523715      27.523715      0.44066202     83402.901    
    238000   0.039988679   -36.292041      0.05998186    -36.232059      0.75776067     0.74190577     0.72261137     107.80746      26.951866      26.951866      0.74075927     78311.671    
    240000   0.040105416   -36.280101      0.060156963   -36.219944      0.9612294      0.89031953     0.91253936     106.58662      26.646654      26.646654      0.92136276     75681.204    
    242000   0.040127866   -36.274395      0.060190637   -36.214204      1.0296562      1.0035644      0.94391338     105.97642      26.494106      26.494106      0.99237799     74388.838    
    244000   0.040536086   -36.270706      0.060802956   -36.209904      1.0267958      1.0246527      0.9755996      105.61845      26.404612      26.404612      1.009016       73637.559    
    246000   0.039978318   -36.269433      0.05996632    -36.209467      1.0130285      0.99490363     0.96503355     105.38738      26.346844      26.346844      0.99098856     73155.301    
    248000   0.039887057   -36.267626      0.05982943    -36.207796      1.0054049      0.96497546     0.98163749     105.19173      26.297934      26.297934      0.98400595     72748.638    
    250000   0.039986257   -36.265625      0.059978228   -36.205647      1.0811225      1.0456926      0.98256068     105.04759      26.261897      26.261897      1.0364586      72449.984    
    252000   0.039883143   -36.264801      0.05982356    -36.204978      1.0124613      0.94730087     0.94361548     104.93617      26.234043      26.234043      0.96779255     72219.697    
    254000   0.039951502   -36.263371      0.059926096   -36.203445      1.0045199      0.98374176     0.98489699     104.83087      26.207717      26.207717      0.99105289     72002.499    
    255000   0.040026305   -36.263409      0.060038299   -36.20337       1.0387261      1.0217333      1.0299924      104.78896      26.19724       26.19724       1.0301506      71916.181    
Loop time of 575.397 on 1 procs for 30000 steps with 51803 atoms

Performance: 4504.713 tau/day, 52.138 timesteps/s, 2.701 Matom-step/s
100.0% CPU use with 1 MPI tasks x 1 OpenMP threads

MPI task timing breakdown:
Section |  min time  |  avg time  |  max time  |%varavg| %total
---------------------------------------------------------------
Pair    | 501.68     | 501.68     | 501.68     |   0.0 | 87.19
Neigh   | 20.773     | 20.773     | 20.773     |   0.0 |  3.61
Comm    | 4.6351     | 4.6351     | 4.6351     |   0.0 |  0.81
Output  | 0.0054003  | 0.0054003  | 0.0054003  |   0.0 |  0.00
Modify  | 42.588     | 42.588     | 42.588     |   0.0 |  7.40
Other   |            | 5.719      |            |       |  0.99

Nlocal:          51803 ave       51803 max       51803 min
Histogram: 1 0 0 0 0 0 0 0 0 0
Nghost:          33619 ave       33619 max       33619 min
Histogram: 1 0 0 0 0 0 0 0 0 0
Neighs:         861201 ave      861201 max      861201 min
Histogram: 1 0 0 0 0 0 0 0 0 0

Total # of neighbors = 861201
Ave neighs/atom = 16.624539
Neighbor list builds = 397
Dangerous builds = 0
unfix           1

###############decompression##########################################
variable       finalpress equal press
fix             1 all npt temp ${tf} ${tf} 0.01 iso ${finalpress} 0.0 10
fix             1 all npt temp 0.04 ${tf} 0.01 iso ${finalpress} 0.0 10
fix             1 all npt temp 0.04 0.04 0.01 iso ${finalpress} 0.0 10
fix             1 all npt temp 0.04 0.04 0.01 iso 1.03015060953218 0.0 10
run            20000#test!0
Generated 0 of 36 mixed pair_coeff terms from geometric mixing rule
Per MPI rank memory allocation (min/avg/max) = 44.44 | 44.44 | 44.44 Mbytes
   Step          Temp          PotEng         KinEng         TotEng          Pxx            Pyy            Pzz             Lx             Ly             Lz           Press          Volume    
    255000   0.040026305   -36.263409      0.060038299   -36.20337       1.0387261      1.0217333      1.0299924      104.78896      26.19724       26.19724       1.0301506      71916.181    
    256000   0.039896685   -36.262222      0.059843873   -36.202378      0.99013675     0.97900066     0.94341431     104.76613      26.191533      26.191533      0.97085057     71869.188    
    258000   0.039846837   -36.267305      0.059769102   -36.207536      0.8929565      0.87873612     0.82819479     104.88312      26.220781      26.220781      0.86662914     72110.226    
    260000   0.039792693   -36.272693      0.059687887   -36.213005      0.79365977     0.74690474     0.73969249     105.0526       26.263149      26.263149      0.76008567     72460.347    
    262000   0.039969586   -36.277946      0.059953221   -36.217993      0.71619119     0.61270345     0.67805691     105.25339      26.313347      26.313347      0.66898385     72876.63     
    264000   0.040175862   -36.282825      0.06026263    -36.222563      0.63694427     0.56731673     0.53534403     105.49249      26.373123      26.373123      0.57986834     73374.415    
    266000   0.039950362   -36.288032      0.059924386   -36.228108      0.48314697     0.35227209     0.52482312     105.7861       26.446525      26.446525      0.45341406     73988.776    
    268000   0.040019263   -36.294231      0.060027735   -36.234204      0.37983458     0.39326954     0.35788004     106.15738      26.539345      26.539345      0.37699472     74770.551    
    270000   0.040066995   -36.299053      0.060099332   -36.238954      0.27292753     0.28108334     0.27701045     106.67882      26.669704      26.669704      0.27700711     75877.777    
    272000   0.039911888   -36.303793      0.059866677   -36.243926      0.15146968     0.22116334     0.16397907     107.34174      26.835436      26.835436      0.1788707      77301.149    
    274000   0.040154729   -36.308294      0.060230931   -36.248063      0.087262961    0.13530627     0.11388852     108.30279      27.075697      27.075697      0.11215259     79396.056    
    275000   0.039929602   -36.310335      0.059893247   -36.250442      0.016527913    0.035501107    0.075398425    108.91589      27.228973      27.228973      0.042475815    80752.089    
Loop time of 380.512 on 1 procs for 20000 steps with 51803 atoms

Performance: 4541.245 tau/day, 52.561 timesteps/s, 2.723 Matom-step/s
100.0% CPU use with 1 MPI tasks x 1 OpenMP threads

MPI task timing breakdown:
Section |  min time  |  avg time  |  max time  |%varavg| %total
---------------------------------------------------------------
Pair    | 338.07     | 338.07     | 338.07     |   0.0 | 88.85
Neigh   | 6.8917     | 6.8917     | 6.8917     |   0.0 |  1.81
Comm    | 3.2194     | 3.2194     | 3.2194     |   0.0 |  0.85
Output  | 0.0037751  | 0.0037751  | 0.0037751  |   0.0 |  0.00
Modify  | 28.491     | 28.491     | 28.491     |   0.0 |  7.49
Other   |            | 3.833      |            |       |  1.01

Nlocal:          51803 ave       51803 max       51803 min
Histogram: 1 0 0 0 0 0 0 0 0 0
Nghost:          31942 ave       31942 max       31942 min
Histogram: 1 0 0 0 0 0 0 0 0 0
Neighs:         832449 ave      832449 max      832449 min
Histogram: 1 0 0 0 0 0 0 0 0 0

Total # of neighbors = 832449
Ave neighs/atom = 16.069513
Neighbor list builds = 122
Dangerous builds = 0
unfix          1

###############maintain pressure_relaxation############################
fix             1 all npt temp ${tf} ${tf} 0.01 x 0.0 0.0 5.0 y 0.0 0.0 5.0 z 0.0 0.0 5.0
fix             1 all npt temp 0.04 ${tf} 0.01 x 0.0 0.0 5.0 y 0.0 0.0 5.0 z 0.0 0.0 5.0
fix             1 all npt temp 0.04 0.04 0.01 x 0.0 0.0 5.0 y 0.0 0.0 5.0 z 0.0 0.0 5.0
run            20000#test!0
Generated 0 of 36 mixed pair_coeff terms from geometric mixing rule
Per MPI rank memory allocation (min/avg/max) = 44.44 | 44.44 | 44.44 Mbytes
   Step          Temp          PotEng         KinEng         TotEng          Pxx            Pyy            Pzz             Lx             Ly             Lz           Press          Volume    
    275000   0.039929602   -36.310335      0.059893247   -36.250442      0.016527913    0.035501107    0.075398425    108.91589      27.228973      27.228973      0.042475815    80752.089    
    276000   0.039880815   -36.311788      0.059820068   -36.251968     -0.0088582206   0.013049149    0.0043645608   110.11888      27.470996      27.481556      0.0028518298   83133.779    
    278000   0.039890367   -36.313408      0.059834396   -36.253574      0.0024683815   0.022454082   -0.0031173352   111.55705      27.78098       27.780373      0.0072683762   86095.939    
    280000   0.039834679   -36.314785      0.059750865   -36.255034      0.047042987   -0.027651459   -0.022234848    112.4551       27.963671      27.937031     -0.00094777332  87852.389    
    282000   0.040387235   -36.316124      0.060579683   -36.255544     -0.025043521   -0.024871386   -0.011337068    113.13824      28.066273      28.037414     -0.020417325    89029.133    
    284000   0.040076083   -36.316878      0.060112964   -36.256765     -0.067656826   -0.048397594   -0.0339342      113.61742      28.141219      28.112428     -0.049996207    89884.782    
    286000   0.03992295    -36.317472      0.059883269   -36.257589     -0.017684079   -0.034691963   -0.01382854     113.96753      28.192636      28.172519     -0.022068194    90519.57     
    288000   0.04021777    -36.318054      0.06032549    -36.257729      0.019727454    0.022245553    0.066476043    114.24862      28.203713      28.238583      0.036149683    90991.356    
    290000   0.039980855   -36.318283      0.059970125   -36.258313     -0.04679119    -0.01350993    -0.012401776    114.52919      28.229913      28.269124     -0.024234299    91398.291    
    292000   0.039986218   -36.31972       0.059978169   -36.259742      0.021510974    0.021456851    0.024451615    114.64079      28.262958      28.271035      0.022473147    91600.635    
    294000   0.039939233   -36.319931      0.059907693   -36.260023      0.01481939    -0.021393333    0.00173157     114.76805      28.306318      28.284713     -0.0016141242   91887.436    
    295000   0.040104715   -36.320216      0.060155911   -36.26006       0.019176011   -0.020605955   -0.032878737    114.84536      28.320754      28.29308      -0.011436227    92023.448    
Loop time of 363.14 on 1 procs for 20000 steps with 51803 atoms

Performance: 4758.499 tau/day, 55.075 timesteps/s, 2.853 Matom-step/s
100.0% CPU use with 1 MPI tasks x 1 OpenMP threads

MPI task timing breakdown:
Section |  min time  |  avg time  |  max time  |%varavg| %total
---------------------------------------------------------------
Pair    | 317.88     | 317.88     | 317.88     |   0.0 | 87.54
Neigh   | 5.494      | 5.494      | 5.494      |   0.0 |  1.51
Comm    | 2.9533     | 2.9533     | 2.9533     |   0.0 |  0.81
Output  | 0.0037175  | 0.0037175  | 0.0037175  |   0.0 |  0.00
Modify  | 33.036     | 33.036     | 33.036     |   0.0 |  9.10
Other   |            | 3.774      |            |       |  1.04

Nlocal:          51803 ave       51803 max       51803 min
Histogram: 1 0 0 0 0 0 0 0 0 0
Nghost:          30240 ave       30240 max       30240 min
Histogram: 1 0 0 0 0 0 0 0 0 0
Neighs:         814100 ave      814100 max      814100 min
Histogram: 1 0 0 0 0 0 0 0 0 0

Total # of neighbors = 814100
Ave neighs/atom = 15.715306
Neighbor list builds = 106
Dangerous builds = 0
unfix          1

write_data    resultingsilk.data
System init for write_data ...
Generated 0 of 36 mixed pair_coeff terms from geometric mixing rule
WARNING: Not all mixed pair coeffs generated from mixing. Use write_data with 'pair ij' option to store all pair coeffs. (src/write_data.cpp:364)
Total wall time: 1:30:11
